Compiler and run-time data
===============================================================================
RASPA 3.0.4

Random seed: 4251599813

Compiled as a 64-bits application
Compiler: gcc Ubuntu Clang 18.1.3 (1ubuntu1)
Compile Date = Mar 15 2025, Compile Time = 19:39:45

2025-06-03 10:59:44.565286
Simulation started on Tue, Jun 03
The start time was 10:59:00

Hostname:    c109
OS type:     Linux on x86_64
OS release:  6.8.0-58-generic
OS version:  #60-Ubuntu SMP PREEMPT_DYNAMIC Fri Mar 14 18:29:48 UTC 2025


Mutual consistent basic set of units:
===============================================================================

Unit of temperature: 1 [K]
Unit of length:      1e-10 [m]
Unit of time:        1e-12 [s]
Unit of mass:        1.6605402e-27 [kg]
Unit of charge:      1.60217733e-19 [C/particle]


Boltzmann constant (internal units):          0.8314464919307584 [-]
represents conversion from energy (internal units) to temperature (in Kelvin)

Derived units and their conversion factors:
===============================================================================

Unit of energy:                           1.6605402000000002e-23 [J]
Unit of energy:                           10.000008872307538 [J.mol⁻¹]
Unit of velocity:                         100 [m.s⁻¹]
Unit of force:                            1.6605402000000002e-13 [N]
Unit of diffusion:                        1.0000000000000002e-08 [m².s⁻¹]
Unit of acceleration:                     1.0000000000000002e-08 [m².s⁻¹]
Unit of torque:                           1.6605402000000002e-23 [N.m]
Unit of pressure:                         16605402 [Pa]
Unit of volume:                           1e-30 [m³]
Unit of density:                          1660.5402 [kg.m⁻³]
Unit of dynamic viscosity:                1.6605401999999997e-05 [N.s.m⁻²]
Unit of enthalpy:                         1.6605402000000002e-23 [J]
Unit of polarizability:                   1.5458657349975198e-35 [-]
Unit of Coulomb potential:                167101.08000665612 [K]
Unit of dielectric constant:              1.5458657349975193e-05 [s².C².kg⁻¹.m⁻³]
Unit of dipole moment:                    1.60217733e-29 [C.m]
Unit of Debye:                            4.803206799099162 [C.m]
Unit of electric potential:               0.00010364272224473431 [V]
Unit of electric field:                   1036427.222447343 [V.m⁻¹]
Unit of isothermal compressibility:       6.02213665167516e-08 [Pa⁻¹]
Unit of heat capacity:                    10.000008872307538 [J.mol⁻¹.K⁻¹]
Unit of volumetric expansion coefficient: 1 [K⁻¹]


Internal conversion factors:
===============================================================================

Energy (internal units) to Kelvin:      1.202724284692786 [-]
Kelvin to energy (internal units):      0.8314457542157567 [-]


System definitions
===============================================================================

Temperature:          230 [K]
Beta:                 0.005229231380675068 [-]
Pressure:             0 [Pa]
Helium void fraction: 1 [-]

Box:      30.00000   0.00000   0.00000
           0.00000  30.00000   0.00000
           0.00000   0.00000  30.00000
Lengths:  30.00000  30.00000  30.00000
Angles:   90.00000  90.00000  90.00000
Rectangular boundary conditions



Property measurement settings
===============================================================================




Pseudo-atoms
===============================================================================

  0 - C_co2    framework-atom: false
  1 - O_co2    framework-atom: false

  0 - C_co2    mass: 12.00000, charge:  0.70000
  1 - O_co2    mass: 15.99940, charge: -0.35000

  0 - C_co2    polarizability:  0.00000
  1 - O_co2    polarizability:  0.00000

  0 - J. J. Potoff et al., AIChE J. 2001, 47, 1676–1682.
  1 - J. J. Potoff et al., AIChE J. 2001, 47, 1676–1682.

Force field status
===============================================================================

Cutoff Framework-Molecule VDW:  12.00000 [Å]
Cutoff Molecule-Molecule VDW:   12.00000 [Å]
Cutoff Coulomb:                 12.00000 [Å]

Overlap-criteria VDW:           1.000000e+05 [K]

C_co2    - C_co2    Lennard-Jones p₀/kʙ:  27.00000 [K], p₁:  2.80000 [Å]
                                  shift:   0.00000 [K], tailcorrections: true
C_co2    - O_co2    Lennard-Jones p₀/kʙ:  46.18441 [K], p₁:  2.92500 [Å]
                                  shift:   0.00000 [K], tailcorrections: true
O_co2    - O_co2    Lennard-Jones p₀/kʙ:  79.00000 [K], p₁:  3.05000 [Å]
                                  shift:   0.00000 [K], tailcorrections: true

Ewald precision: 1e-06
Ewald alpha: 0.26505830360350674
Ewald k-vectors: 8 8 8


Component definitions
===============================================================================

Component 0 [CO2]

    Type: Adsorbate

    Critical temperature:  304.1282 [K]
    Critical pressure:     7377300 [Pa]
    Acentric factor:       0.22394 [-]

    Mol-fraction:                 1 [-]
    Swappable:                   true

    Mass:                         43.9988 [-]
    Fugacity coefficient:         -nan [-]
    Bulk fluid density:           0 [-]
    Compressibility:              1 [-]
    Excess molecules:             0 [-]

    Number Of Atoms:    3
    CBMC starting bead: 0
      0: O_co2  position  0.00000 -0.00000  1.16000, charge -0.35000
      1: C_co2  position  0.00000 -0.00000  0.00000, charge  0.70000
      2: O_co2  position  0.00000 -0.00000 -1.16000, charge -0.35000
    Diagonalized inertia-vector:      43.05758528 43.05758528 0.00000000
    Translational degrees of freedom: 3
    Rotational degrees of freedom:    2
    Shape of the molecule is: 'Linear'
    Net-charge:        0.00000000 [e]

    Move probabilities:
    Translation:                   0.199203 [-]
    Random translation:            0.000000 [-]
    Rotation:                      0.199203 [-]
    Random rotation:               0.000000 [-]
    Volume change:                 0.000000 [-]
    Reinsertion (CBMC):            0.199203 [-]
    Identity change (CBMC):        0.000000 [-]
    Swap:                          0.000000 [-]
    Swap (CBMC):                   0.000000 [-]
    Swap (CFCMC):                  0.000000 [-]
    Swap (CB/CFCMC):               0.000000 [-]
    Gibbs volume:                  0.003984 [-]
    Gibbs swap (CBMC):             0.398406 [-]
    Gibbs swap (CFCMC):            0.000000 [-]
    Widom:                         0.000000 [-]
    Widom (CFCMC):                 0.000000 [-]
    Widom (CB/CFCMC):              0.000000 [-]
    Parallel tempering:            0.000000 [-]
    Hybrid MC:                     0.000000 [-]

    number of blocking-pockets: 0

    number of bonds: 0





Number of pseudo-atoms
===============================================================================

Component   0 (CO2)
-------------------------------------------------------------------------------
    index   0 (C_co2): 210 atoms
    index   1 (O_co2): 420 atoms

Total number of pseudo-atoms:
-------------------------------------------------------------------------------
    index   0 (C_co2): 210 atoms
    index   1 (O_co2): 420 atoms




Energy status Recomputed from scratch
===============================================================================

Total potential energy/kʙ       -1.074819e+05 [K]
    external field VDW/kʙ        0.000000e+00 [K]
    external field Real/kʙ       0.000000e+00 [K]
    framework-molecule VDW/kʙ    0.000000e+00 [K]
    framework-molecule Real/kʙ   0.000000e+00 [K]
    molecule-molecule VDW/kʙ    -8.026459e+04 [K]
    molecule-molecule Real/kʙ   -2.206979e+04 [K]
    Van der Waals (Tail)/kʙ     -3.033270e+03 [K]
    Ewald Fourier/kʙ             1.023490e+04 [K]
    Ewald self/kʙ               -3.857024e+06 [K]
    Ewald exclusion/kʙ           3.844675e+06 [K]
    intra VDW/kʙ                 0.000000e+00 [K]
    intra Coulombic/kʙ           0.000000e+00 [K]
    polarization/kʙ              0.000000e+00 [K]
    dU/dlambda VDW/kʙ            0.000000e+00 [K]
    dU/dlambda Real/kʙ           0.000000e+00 [K]
    dU/dlambda Ewald/kʙ          0.000000e+00 [K]





Initialization: Current cycle: 0 out of 2000
===============================================================================

Box:      30.00000   0.00000   0.00000
           0.00000  30.00000   0.00000
           0.00000   0.00000  30.00000
Lengths:  30.00000  30.00000  30.00000
Angles:   90.00000  90.00000  90.00000
Rectangular boundary conditions

net charge:   0.00000000

component   0 (CO2) lambda:  0 occupancy:  0 (0.000000)
    net charge:   0.00000000 [e]

Amount of molecules per component :
-------------------------------------------------------------------------------
Component 0 (CO2)
    molecules:         2.320000e+02 molecules
    number density:    8.592593e-03 molec/A^3
    density:           6.277895e+02 kg/m^3

Total potential energy/kʙ       -1.562930e+05 [K]
-------------------------------------------------------------------------------
    external field VDW/kʙ        0.000000e+00 [K]
    external field Real/kʙ       0.000000e+00 [K]
    framework-molecule VDW/kʙ    0.000000e+00 [K]
    framework-molecule Real/kʙ   0.000000e+00 [K]
    molecule-molecule VDW/kʙ    -1.200300e+05 [K]
    molecule-molecule Real/kʙ   -2.959206e+04 [K]
    Van der Waals (Tail)/kʙ     -3.702102e+03 [K]
    Ewald Fourier/kʙ             1.067401e+04 [K]
    Ewald self/kʙ               -4.261093e+06 [K]
    Ewald exclusion/kʙ           4.247451e+06 [K]
    intra VDW/kʙ                 0.000000e+00 [K]
    intra Coulombic/kʙ           0.000000e+00 [K]
    polarization/kʙ              0.000000e+00 [K]
    dU/dlambda VDW/kʙ            0.000000e+00 [K]
    dU/dlambda Real/kʙ           0.000000e+00 [K]
    dU/dlambda Ewald/kʙ          0.000000e+00 [K]


Initialization: Current cycle: 100 out of 2000
===============================================================================

Box:      28.71326   0.00000   0.00000
           0.00000  28.71326   0.00000
           0.00000   0.00000  28.71326
Lengths:  28.71326  28.71326  28.71326
Angles:   90.00000  90.00000  90.00000
Rectangular boundary conditions

net charge:   0.00000000

component   0 (CO2) lambda:  0 occupancy:  0 (0.000000)
    net charge:   0.00000000 [e]

Amount of molecules per component :
-------------------------------------------------------------------------------
Component 0 (CO2)
    molecules:         2.450000e+02 molecules
    number density:    1.034948e-02 molec/A^3
    density:           7.561510e+02 kg/m^3

Total potential energy/kʙ       -3.014114e+05 [K]
-------------------------------------------------------------------------------
    external field VDW/kʙ        0.000000e+00 [K]
    external field Real/kʙ       0.000000e+00 [K]
    framework-molecule VDW/kʙ    0.000000e+00 [K]
    framework-molecule Real/kʙ   0.000000e+00 [K]
    molecule-molecule VDW/kʙ    -2.228030e+05 [K]
    molecule-molecule Real/kʙ   -6.768173e+04 [K]
    Van der Waals (Tail)/kʙ     -4.708916e+03 [K]
    Ewald Fourier/kʙ             8.189567e+03 [K]
    Ewald self/kʙ               -4.499862e+06 [K]
    Ewald exclusion/kʙ           4.485454e+06 [K]
    intra VDW/kʙ                 0.000000e+00 [K]
    intra Coulombic/kʙ           0.000000e+00 [K]
    polarization/kʙ              0.000000e+00 [K]
    dU/dlambda VDW/kʙ            0.000000e+00 [K]
    dU/dlambda Real/kʙ           0.000000e+00 [K]
    dU/dlambda Ewald/kʙ          0.000000e+00 [K]


Initialization: Current cycle: 200 out of 2000
===============================================================================

Box:      27.83108   0.00000   0.00000
           0.00000  27.83108   0.00000
           0.00000   0.00000  27.83108
Lengths:  27.83108  27.83108  27.83108
Angles:   90.00000  90.00000  90.00000
Rectangular boundary conditions

net charge:   0.00000000

component   0 (CO2) lambda:  0 occupancy:  0 (0.000000)
    net charge:   0.00000000 [e]

Amount of molecules per component :
-------------------------------------------------------------------------------
Component 0 (CO2)
    molecules:         2.470000e+02 molecules
    number density:    1.145794e-02 molec/A^3
    density:           8.371368e+02 kg/m^3

Total potential energy/kʙ       -3.012597e+05 [K]
-------------------------------------------------------------------------------
    external field VDW/kʙ        0.000000e+00 [K]
    external field Real/kʙ       0.000000e+00 [K]
    framework-molecule VDW/kʙ    0.000000e+00 [K]
    framework-molecule Real/kʙ   0.000000e+00 [K]
    molecule-molecule VDW/kʙ    -2.224287e+05 [K]
    molecule-molecule Real/kʙ   -6.696066e+04 [K]
    Van der Waals (Tail)/kʙ     -5.255811e+03 [K]
    Ewald Fourier/kʙ             7.910524e+03 [K]
    Ewald self/kʙ               -4.536595e+06 [K]
    Ewald exclusion/kʙ           4.522070e+06 [K]
    intra VDW/kʙ                 0.000000e+00 [K]
    intra Coulombic/kʙ           0.000000e+00 [K]
    polarization/kʙ              0.000000e+00 [K]
    dU/dlambda VDW/kʙ            0.000000e+00 [K]
    dU/dlambda Real/kʙ           0.000000e+00 [K]
    dU/dlambda Ewald/kʙ          0.000000e+00 [K]


Initialization: Current cycle: 300 out of 2000
===============================================================================

Box:      26.77326   0.00000   0.00000
           0.00000  26.77326   0.00000
           0.00000   0.00000  26.77326
Lengths:  26.77326  26.77326  26.77326
Angles:   90.00000  90.00000  90.00000
Rectangular boundary conditions

net charge:   0.00000000

component   0 (CO2) lambda:  0 occupancy:  0 (0.000000)
    net charge:   0.00000000 [e]

Amount of molecules per component :
-------------------------------------------------------------------------------
Component 0 (CO2)
    molecules:         2.450000e+02 molecules
    number density:    1.276622e-02 molec/A^3
    density:           9.327218e+02 kg/m^3

Total potential energy/kʙ       -3.354820e+05 [K]
-------------------------------------------------------------------------------
    external field VDW/kʙ        0.000000e+00 [K]
    external field Real/kʙ       0.000000e+00 [K]
    framework-molecule VDW/kʙ    0.000000e+00 [K]
    framework-molecule Real/kʙ   0.000000e+00 [K]
    molecule-molecule VDW/kʙ    -2.369019e+05 [K]
    molecule-molecule Real/kʙ   -8.582470e+04 [K]
    Van der Waals (Tail)/kʙ     -5.808508e+03 [K]
    Ewald Fourier/kʙ             7.460498e+03 [K]
    Ewald self/kʙ               -4.499862e+06 [K]
    Ewald exclusion/kʙ           4.485454e+06 [K]
    intra VDW/kʙ                 0.000000e+00 [K]
    intra Coulombic/kʙ           0.000000e+00 [K]
    polarization/kʙ              0.000000e+00 [K]
    dU/dlambda VDW/kʙ            0.000000e+00 [K]
    dU/dlambda Real/kʙ           0.000000e+00 [K]
    dU/dlambda Ewald/kʙ          0.000000e+00 [K]


Initialization: Current cycle: 400 out of 2000
===============================================================================

Box:      26.69566   0.00000   0.00000
           0.00000  26.69566   0.00000
           0.00000   0.00000  26.69566
Lengths:  26.69566  26.69566  26.69566
Angles:   90.00000  90.00000  90.00000
Rectangular boundary conditions

net charge:   0.00000000

component   0 (CO2) lambda:  0 occupancy:  0 (0.000000)
    net charge:   0.00000000 [e]

Amount of molecules per component :
-------------------------------------------------------------------------------
Component 0 (CO2)
    molecules:         2.480000e+02 molecules
    number density:    1.303556e-02 molec/A^3
    density:           9.524001e+02 kg/m^3

Total potential energy/kʙ       -3.501998e+05 [K]
-------------------------------------------------------------------------------
    external field VDW/kʙ        0.000000e+00 [K]
    external field Real/kʙ       0.000000e+00 [K]
    framework-molecule VDW/kʙ    0.000000e+00 [K]
    framework-molecule Real/kʙ   0.000000e+00 [K]
    molecule-molecule VDW/kʙ    -2.535045e+05 [K]
    molecule-molecule Real/kʙ   -8.240209e+04 [K]
    Van der Waals (Tail)/kʙ     -6.003679e+03 [K]
    Ewald Fourier/kʙ             6.294215e+03 [K]
    Ewald self/kʙ               -4.554962e+06 [K]
    Ewald exclusion/kʙ           4.540378e+06 [K]
    intra VDW/kʙ                 0.000000e+00 [K]
    intra Coulombic/kʙ           0.000000e+00 [K]
    polarization/kʙ              0.000000e+00 [K]
    dU/dlambda VDW/kʙ            0.000000e+00 [K]
    dU/dlambda Real/kʙ           0.000000e+00 [K]
    dU/dlambda Ewald/kʙ          0.000000e+00 [K]


Initialization: Current cycle: 500 out of 2000
===============================================================================

Box:      26.23689   0.00000   0.00000
           0.00000  26.23689   0.00000
           0.00000   0.00000  26.23689
Lengths:  26.23689  26.23689  26.23689
Angles:   90.00000  90.00000  90.00000
Rectangular boundary conditions

net charge:   0.00000000

component   0 (CO2) lambda:  0 occupancy:  0 (0.000000)
    net charge:   0.00000000 [e]

Amount of molecules per component :
-------------------------------------------------------------------------------
Component 0 (CO2)
    molecules:         2.390000e+02 molecules
    number density:    1.323307e-02 molec/A^3
    density:           9.668309e+02 kg/m^3

Total potential energy/kʙ       -3.290960e+05 [K]
-------------------------------------------------------------------------------
    external field VDW/kʙ        0.000000e+00 [K]
    external field Real/kʙ       0.000000e+00 [K]
    framework-molecule VDW/kʙ    0.000000e+00 [K]
    framework-molecule Real/kʙ   0.000000e+00 [K]
    molecule-molecule VDW/kʙ    -2.447818e+05 [K]
    molecule-molecule Real/kʙ   -7.103869e+04 [K]
    Van der Waals (Tail)/kʙ     -5.873470e+03 [K]
    Ewald Fourier/kʙ             6.652517e+03 [K]
    Ewald self/kʙ               -4.389661e+06 [K]
    Ewald exclusion/kʙ           4.375606e+06 [K]
    intra VDW/kʙ                 0.000000e+00 [K]
    intra Coulombic/kʙ           0.000000e+00 [K]
    polarization/kʙ              0.000000e+00 [K]
    dU/dlambda VDW/kʙ            0.000000e+00 [K]
    dU/dlambda Real/kʙ           0.000000e+00 [K]
    dU/dlambda Ewald/kʙ          0.000000e+00 [K]


Initialization: Current cycle: 600 out of 2000
===============================================================================

Box:      25.80028   0.00000   0.00000
           0.00000  25.80028   0.00000
           0.00000   0.00000  25.80028
Lengths:  25.80028  25.80028  25.80028
Angles:   90.00000  90.00000  90.00000
Rectangular boundary conditions

net charge:   0.00000000

component   0 (CO2) lambda:  0 occupancy:  0 (0.000000)
    net charge:   0.00000000 [e]

Amount of molecules per component :
-------------------------------------------------------------------------------
Component 0 (CO2)
    molecules:         2.430000e+02 molecules
    number density:    1.414925e-02 molec/A^3
    density:           1.033768e+03 kg/m^3

Total potential energy/kʙ       -3.660879e+05 [K]
-------------------------------------------------------------------------------
    external field VDW/kʙ        0.000000e+00 [K]
    external field Real/kʙ       0.000000e+00 [K]
    framework-molecule VDW/kʙ    0.000000e+00 [K]
    framework-molecule Real/kʙ   0.000000e+00 [K]
    molecule-molecule VDW/kʙ    -2.648976e+05 [K]
    molecule-molecule Real/kʙ   -8.666924e+04 [K]
    Van der Waals (Tail)/kʙ     -6.385218e+03 [K]
    Ewald Fourier/kʙ             6.154013e+03 [K]
    Ewald self/kʙ               -4.463128e+06 [K]
    Ewald exclusion/kʙ           4.448838e+06 [K]
    intra VDW/kʙ                 0.000000e+00 [K]
    intra Coulombic/kʙ           0.000000e+00 [K]
    polarization/kʙ              0.000000e+00 [K]
    dU/dlambda VDW/kʙ            0.000000e+00 [K]
    dU/dlambda Real/kʙ           0.000000e+00 [K]
    dU/dlambda Ewald/kʙ          0.000000e+00 [K]


Initialization: Current cycle: 700 out of 2000
===============================================================================

Box:      25.55320   0.00000   0.00000
           0.00000  25.55320   0.00000
           0.00000   0.00000  25.55320
Lengths:  25.55320  25.55320  25.55320
Angles:   90.00000  90.00000  90.00000
Rectangular boundary conditions

net charge:   0.00000000

component   0 (CO2) lambda:  0 occupancy:  0 (0.000000)
    net charge:   0.00000000 [e]

Amount of molecules per component :
-------------------------------------------------------------------------------
Component 0 (CO2)
    molecules:         2.440000e+02 molecules
    number density:    1.462359e-02 molec/A^3
    density:           1.068424e+03 kg/m^3

Total potential energy/kʙ       -3.807156e+05 [K]
-------------------------------------------------------------------------------
    external field VDW/kʙ        0.000000e+00 [K]
    external field Real/kʙ       0.000000e+00 [K]
    framework-molecule VDW/kʙ    0.000000e+00 [K]
    framework-molecule Real/kʙ   0.000000e+00 [K]
    molecule-molecule VDW/kʙ    -2.723211e+05 [K]
    molecule-molecule Real/kʙ   -9.386616e+04 [K]
    Van der Waals (Tail)/kʙ     -6.626435e+03 [K]
    Ewald Fourier/kʙ             6.446645e+03 [K]
    Ewald self/kʙ               -4.481495e+06 [K]
    Ewald exclusion/kʙ           4.467146e+06 [K]
    intra VDW/kʙ                 0.000000e+00 [K]
    intra Coulombic/kʙ           0.000000e+00 [K]
    polarization/kʙ              0.000000e+00 [K]
    dU/dlambda VDW/kʙ            0.000000e+00 [K]
    dU/dlambda Real/kʙ           0.000000e+00 [K]
    dU/dlambda Ewald/kʙ          0.000000e+00 [K]


Initialization: Current cycle: 800 out of 2000
===============================================================================

Box:      25.39361   0.00000   0.00000
           0.00000  25.39361   0.00000
           0.00000   0.00000  25.39361
Lengths:  25.39361  25.39361  25.39361
Angles:   90.00000  90.00000  90.00000
Rectangular boundary conditions

net charge:   0.00000000

component   0 (CO2) lambda:  0 occupancy:  0 (0.000000)
    net charge:   0.00000000 [e]

Amount of molecules per component :
-------------------------------------------------------------------------------
Component 0 (CO2)
    molecules:         2.460000e+02 molecules
    number density:    1.502317e-02 molec/A^3
    density:           1.097619e+03 kg/m^3

Total potential energy/kʙ       -3.940052e+05 [K]
-------------------------------------------------------------------------------
    external field VDW/kʙ        0.000000e+00 [K]
    external field Real/kʙ       0.000000e+00 [K]
    framework-molecule VDW/kʙ    0.000000e+00 [K]
    framework-molecule Real/kʙ   0.000000e+00 [K]
    molecule-molecule VDW/kʙ    -2.818179e+05 [K]
    molecule-molecule Real/kʙ   -9.600625e+04 [K]
    Van der Waals (Tail)/kʙ     -6.863300e+03 [K]
    Ewald Fourier/kʙ             5.148482e+03 [K]
    Ewald self/kʙ               -4.518228e+06 [K]
    Ewald exclusion/kʙ           4.503762e+06 [K]
    intra VDW/kʙ                 0.000000e+00 [K]
    intra Coulombic/kʙ           0.000000e+00 [K]
    polarization/kʙ              0.000000e+00 [K]
    dU/dlambda VDW/kʙ            0.000000e+00 [K]
    dU/dlambda Real/kʙ           0.000000e+00 [K]
    dU/dlambda Ewald/kʙ          0.000000e+00 [K]


Initialization: Current cycle: 900 out of 2000
===============================================================================

Box:      25.43348   0.00000   0.00000
           0.00000  25.43348   0.00000
           0.00000   0.00000  25.43348
Lengths:  25.43348  25.43348  25.43348
Angles:   90.00000  90.00000  90.00000
Rectangular boundary conditions

net charge:   0.00000000

component   0 (CO2) lambda:  0 occupancy:  0 (0.000000)
    net charge:   0.00000000 [e]

Amount of molecules per component :
-------------------------------------------------------------------------------
Component 0 (CO2)
    molecules:         2.420000e+02 molecules
    number density:    1.470951e-02 molec/A^3
    density:           1.074702e+03 kg/m^3

Total potential energy/kʙ       -3.808512e+05 [K]
-------------------------------------------------------------------------------
    external field VDW/kʙ        0.000000e+00 [K]
    external field Real/kʙ       0.000000e+00 [K]
    framework-molecule VDW/kʙ    0.000000e+00 [K]
    framework-molecule Real/kʙ   0.000000e+00 [K]
    molecule-molecule VDW/kʙ    -2.756640e+05 [K]
    molecule-molecule Real/kʙ   -9.032753e+04 [K]
    Van der Waals (Tail)/kʙ     -6.610736e+03 [K]
    Ewald Fourier/kʙ             5.982064e+03 [K]
    Ewald self/kʙ               -4.444761e+06 [K]
    Ewald exclusion/kʙ           4.430530e+06 [K]
    intra VDW/kʙ                 0.000000e+00 [K]
    intra Coulombic/kʙ           0.000000e+00 [K]
    polarization/kʙ              0.000000e+00 [K]
    dU/dlambda VDW/kʙ            0.000000e+00 [K]
    dU/dlambda Real/kʙ           0.000000e+00 [K]
    dU/dlambda Ewald/kʙ          0.000000e+00 [K]


Initialization: Current cycle: 1000 out of 2000
===============================================================================

Box:      25.27621   0.00000   0.00000
           0.00000  25.27621   0.00000
           0.00000   0.00000  25.27621
Lengths:  25.27621  25.27621  25.27621
Angles:   90.00000  90.00000  90.00000
Rectangular boundary conditions

net charge:   0.00000000

component   0 (CO2) lambda:  0 occupancy:  0 (0.000000)
    net charge:   0.00000000 [e]

Amount of molecules per component :
-------------------------------------------------------------------------------
Component 0 (CO2)
    molecules:         2.440000e+02 molecules
    number density:    1.510964e-02 molec/A^3
    density:           1.103936e+03 kg/m^3

Total potential energy/kʙ       -4.011808e+05 [K]
-------------------------------------------------------------------------------
    external field VDW/kʙ        0.000000e+00 [K]
    external field Real/kʙ       0.000000e+00 [K]
    framework-molecule VDW/kʙ    0.000000e+00 [K]
    framework-molecule Real/kʙ   0.000000e+00 [K]
    molecule-molecule VDW/kʙ    -2.831503e+05 [K]
    molecule-molecule Real/kʙ   -1.023333e+05 [K]
    Van der Waals (Tail)/kʙ     -6.846681e+03 [K]
    Ewald Fourier/kʙ             5.498060e+03 [K]
    Ewald self/kʙ               -4.481495e+06 [K]
    Ewald exclusion/kʙ           4.467146e+06 [K]
    intra VDW/kʙ                 0.000000e+00 [K]
    intra Coulombic/kʙ           0.000000e+00 [K]
    polarization/kʙ              0.000000e+00 [K]
    dU/dlambda VDW/kʙ            0.000000e+00 [K]
    dU/dlambda Real/kʙ           0.000000e+00 [K]
    dU/dlambda Ewald/kʙ          0.000000e+00 [K]


Initialization: Current cycle: 1100 out of 2000
===============================================================================

Box:      24.97437   0.00000   0.00000
           0.00000  24.97437   0.00000
           0.00000   0.00000  24.97437
Lengths:  24.97437  24.97437  24.97437
Angles:   90.00000  90.00000  90.00000
Rectangular boundary conditions

net charge:   0.00000000

component   0 (CO2) lambda:  0 occupancy:  0 (0.000000)
    net charge:   0.00000000 [e]

Amount of molecules per component :
-------------------------------------------------------------------------------
Component 0 (CO2)
    molecules:         2.380000e+02 molecules
    number density:    1.527894e-02 molec/A^3
    density:           1.116305e+03 kg/m^3

Total potential energy/kʙ       -3.900706e+05 [K]
-------------------------------------------------------------------------------
    external field VDW/kʙ        0.000000e+00 [K]
    external field Real/kʙ       0.000000e+00 [K]
    framework-molecule VDW/kʙ    0.000000e+00 [K]
    framework-molecule Real/kʙ   0.000000e+00 [K]
    molecule-molecule VDW/kʙ    -2.771056e+05 [K]
    molecule-molecule Real/kʙ   -9.768913e+04 [K]
    Van der Waals (Tail)/kʙ     -6.753149e+03 [K]
    Ewald Fourier/kʙ             5.472978e+03 [K]
    Ewald self/kʙ               -4.371294e+06 [K]
    Ewald exclusion/kʙ           4.357298e+06 [K]
    intra VDW/kʙ                 0.000000e+00 [K]
    intra Coulombic/kʙ           0.000000e+00 [K]
    polarization/kʙ              0.000000e+00 [K]
    dU/dlambda VDW/kʙ            0.000000e+00 [K]
    dU/dlambda Real/kʙ           0.000000e+00 [K]
    dU/dlambda Ewald/kʙ          0.000000e+00 [K]


Initialization: Current cycle: 1200 out of 2000
===============================================================================

Box:      25.06129   0.00000   0.00000
           0.00000  25.06129   0.00000
           0.00000   0.00000  25.06129
Lengths:  25.06129  25.06129  25.06129
Angles:   90.00000  90.00000  90.00000
Rectangular boundary conditions

net charge:   0.00000000

component   0 (CO2) lambda:  0 occupancy:  0 (0.000000)
    net charge:   0.00000000 [e]

Amount of molecules per component :
-------------------------------------------------------------------------------
Component 0 (CO2)
    molecules:         2.410000e+02 molecules
    number density:    1.531111e-02 molec/A^3
    density:           1.118656e+03 kg/m^3

Total potential energy/kʙ       -3.953869e+05 [K]
-------------------------------------------------------------------------------
    external field VDW/kʙ        0.000000e+00 [K]
    external field Real/kʙ       0.000000e+00 [K]
    framework-molecule VDW/kʙ    0.000000e+00 [K]
    framework-molecule Real/kʙ   0.000000e+00 [K]
    molecule-molecule VDW/kʙ    -2.873643e+05 [K]
    molecule-molecule Real/kʙ   -9.245936e+04 [K]
    Van der Waals (Tail)/kʙ     -6.852674e+03 [K]
    Ewald Fourier/kʙ             5.461650e+03 [K]
    Ewald self/kʙ               -4.426394e+06 [K]
    Ewald exclusion/kʙ           4.412222e+06 [K]
    intra VDW/kʙ                 0.000000e+00 [K]
    intra Coulombic/kʙ           0.000000e+00 [K]
    polarization/kʙ              0.000000e+00 [K]
    dU/dlambda VDW/kʙ            0.000000e+00 [K]
    dU/dlambda Real/kʙ           0.000000e+00 [K]
    dU/dlambda Ewald/kʙ          0.000000e+00 [K]


Initialization: Current cycle: 1300 out of 2000
===============================================================================

Box:      25.07173   0.00000   0.00000
           0.00000  25.07173   0.00000
           0.00000   0.00000  25.07173
Lengths:  25.07173  25.07173  25.07173
Angles:   90.00000  90.00000  90.00000
Rectangular boundary conditions

net charge:   0.00000000

component   0 (CO2) lambda:  0 occupancy:  0 (0.000000)
    net charge:   0.00000000 [e]

Amount of molecules per component :
-------------------------------------------------------------------------------
Component 0 (CO2)
    molecules:         2.440000e+02 molecules
    number density:    1.548234e-02 molec/A^3
    density:           1.131167e+03 kg/m^3

Total potential energy/kʙ       -4.061258e+05 [K]
-------------------------------------------------------------------------------
    external field VDW/kʙ        0.000000e+00 [K]
    external field Real/kʙ       0.000000e+00 [K]
    framework-molecule VDW/kʙ    0.000000e+00 [K]
    framework-molecule Real/kʙ   0.000000e+00 [K]
    molecule-molecule VDW/kʙ    -2.905529e+05 [K]
    molecule-molecule Real/kʙ   -9.977340e+04 [K]
    Van der Waals (Tail)/kʙ     -7.015566e+03 [K]
    Ewald Fourier/kʙ             5.564708e+03 [K]
    Ewald self/kʙ               -4.481495e+06 [K]
    Ewald exclusion/kʙ           4.467146e+06 [K]
    intra VDW/kʙ                 0.000000e+00 [K]
    intra Coulombic/kʙ           0.000000e+00 [K]
    polarization/kʙ              0.000000e+00 [K]
    dU/dlambda VDW/kʙ            0.000000e+00 [K]
    dU/dlambda Real/kʙ           0.000000e+00 [K]
    dU/dlambda Ewald/kʙ          0.000000e+00 [K]


Initialization: Current cycle: 1400 out of 2000
===============================================================================

Box:      24.99630   0.00000   0.00000
           0.00000  24.99630   0.00000
           0.00000   0.00000  24.99630
Lengths:  24.99630  24.99630  24.99630
Angles:   90.00000  90.00000  90.00000
Rectangular boundary conditions

net charge:   0.00000000

component   0 (CO2) lambda:  0 occupancy:  0 (0.000000)
    net charge:   0.00000000 [e]

Amount of molecules per component :
-------------------------------------------------------------------------------
Component 0 (CO2)
    molecules:         2.360000e+02 molecules
    number density:    1.511071e-02 molec/A^3
    density:           1.104015e+03 kg/m^3

Total potential energy/kʙ       -3.811288e+05 [K]
-------------------------------------------------------------------------------
    external field VDW/kʙ        0.000000e+00 [K]
    external field Real/kʙ       0.000000e+00 [K]
    framework-molecule VDW/kʙ    0.000000e+00 [K]
    framework-molecule Real/kʙ   0.000000e+00 [K]
    molecule-molecule VDW/kʙ    -2.723310e+05 [K]
    molecule-molecule Real/kʙ   -9.425873e+04 [K]
    Van der Waals (Tail)/kʙ     -6.622671e+03 [K]
    Ewald Fourier/kʙ             5.961672e+03 [K]
    Ewald self/kʙ               -4.334561e+06 [K]
    Ewald exclusion/kʙ           4.320682e+06 [K]
    intra VDW/kʙ                 0.000000e+00 [K]
    intra Coulombic/kʙ           0.000000e+00 [K]
    polarization/kʙ              0.000000e+00 [K]
    dU/dlambda VDW/kʙ            0.000000e+00 [K]
    dU/dlambda Real/kʙ           0.000000e+00 [K]
    dU/dlambda Ewald/kʙ          0.000000e+00 [K]


Initialization: Current cycle: 1500 out of 2000
===============================================================================

Box:      25.19481   0.00000   0.00000
           0.00000  25.19481   0.00000
           0.00000   0.00000  25.19481
Lengths:  25.19481  25.19481  25.19481
Angles:   90.00000  90.00000  90.00000
Rectangular boundary conditions

net charge:   0.00000000

component   0 (CO2) lambda:  0 occupancy:  0 (0.000000)
    net charge:   0.00000000 [e]

Amount of molecules per component :
-------------------------------------------------------------------------------
Component 0 (CO2)
    molecules:         2.390000e+02 molecules
    number density:    1.494393e-02 molec/A^3
    density:           1.091829e+03 kg/m^3

Total potential energy/kʙ       -3.849972e+05 [K]
-------------------------------------------------------------------------------
    external field VDW/kʙ        0.000000e+00 [K]
    external field Real/kʙ       0.000000e+00 [K]
    framework-molecule VDW/kʙ    0.000000e+00 [K]
    framework-molecule Real/kʙ   0.000000e+00 [K]
    molecule-molecule VDW/kʙ    -2.774594e+05 [K]
    molecule-molecule Real/kʙ   -9.264289e+04 [K]
    Van der Waals (Tail)/kʙ     -6.632830e+03 [K]
    Ewald Fourier/kʙ             5.792510e+03 [K]
    Ewald self/kʙ               -4.389661e+06 [K]
    Ewald exclusion/kʙ           4.375606e+06 [K]
    intra VDW/kʙ                 0.000000e+00 [K]
    intra Coulombic/kʙ           0.000000e+00 [K]
    polarization/kʙ              0.000000e+00 [K]
    dU/dlambda VDW/kʙ            0.000000e+00 [K]
    dU/dlambda Real/kʙ           0.000000e+00 [K]
    dU/dlambda Ewald/kʙ          0.000000e+00 [K]


Initialization: Current cycle: 1600 out of 2000
===============================================================================

Box:      25.05336   0.00000   0.00000
           0.00000  25.05336   0.00000
           0.00000   0.00000  25.05336
Lengths:  25.05336  25.05336  25.05336
Angles:   90.00000  90.00000  90.00000
Rectangular boundary conditions

net charge:   0.00000000

component   0 (CO2) lambda:  0 occupancy:  0 (0.000000)
    net charge:   0.00000000 [e]

Amount of molecules per component :
-------------------------------------------------------------------------------
Component 0 (CO2)
    molecules:         2.390000e+02 molecules
    number density:    1.519848e-02 molec/A^3
    density:           1.110427e+03 kg/m^3

Total potential energy/kʙ       -3.819461e+05 [K]
-------------------------------------------------------------------------------
    external field VDW/kʙ        0.000000e+00 [K]
    external field Real/kʙ       0.000000e+00 [K]
    framework-molecule VDW/kʙ    0.000000e+00 [K]
    framework-molecule Real/kʙ   0.000000e+00 [K]
    molecule-molecule VDW/kʙ    -2.760198e+05 [K]
    molecule-molecule Real/kʙ   -9.021108e+04 [K]
    Van der Waals (Tail)/kʙ     -6.745812e+03 [K]
    Ewald Fourier/kʙ             5.085163e+03 [K]
    Ewald self/kʙ               -4.389661e+06 [K]
    Ewald exclusion/kʙ           4.375606e+06 [K]
    intra VDW/kʙ                 0.000000e+00 [K]
    intra Coulombic/kʙ           0.000000e+00 [K]
    polarization/kʙ              0.000000e+00 [K]
    dU/dlambda VDW/kʙ            0.000000e+00 [K]
    dU/dlambda Real/kʙ           0.000000e+00 [K]
    dU/dlambda Ewald/kʙ          0.000000e+00 [K]


Initialization: Current cycle: 1700 out of 2000
===============================================================================

Box:      25.02404   0.00000   0.00000
           0.00000  25.02404   0.00000
           0.00000   0.00000  25.02404
Lengths:  25.02404  25.02404  25.02404
Angles:   90.00000  90.00000  90.00000
Rectangular boundary conditions

net charge:   0.00000000

component   0 (CO2) lambda:  0 occupancy:  0 (0.000000)
    net charge:   0.00000000 [e]

Amount of molecules per component :
-------------------------------------------------------------------------------
Component 0 (CO2)
    molecules:         2.410000e+02 molecules
    number density:    1.537958e-02 molec/A^3
    density:           1.123659e+03 kg/m^3

Total potential energy/kʙ       -3.922877e+05 [K]
-------------------------------------------------------------------------------
    external field VDW/kʙ        0.000000e+00 [K]
    external field Real/kʙ       0.000000e+00 [K]
    framework-molecule VDW/kʙ    0.000000e+00 [K]
    framework-molecule Real/kʙ   0.000000e+00 [K]
    molecule-molecule VDW/kʙ    -2.820266e+05 [K]
    molecule-molecule Real/kʙ   -9.441470e+04 [K]
    Van der Waals (Tail)/kʙ     -6.883318e+03 [K]
    Ewald Fourier/kʙ             5.209042e+03 [K]
    Ewald self/kʙ               -4.426394e+06 [K]
    Ewald exclusion/kʙ           4.412222e+06 [K]
    intra VDW/kʙ                 0.000000e+00 [K]
    intra Coulombic/kʙ           0.000000e+00 [K]
    polarization/kʙ              0.000000e+00 [K]
    dU/dlambda VDW/kʙ            0.000000e+00 [K]
    dU/dlambda Real/kʙ           0.000000e+00 [K]
    dU/dlambda Ewald/kʙ          0.000000e+00 [K]


Initialization: Current cycle: 1800 out of 2000
===============================================================================

Box:      25.23938   0.00000   0.00000
           0.00000  25.23938   0.00000
           0.00000   0.00000  25.23938
Lengths:  25.23938  25.23938  25.23938
Angles:   90.00000  90.00000  90.00000
Rectangular boundary conditions

net charge:   0.00000000

component   0 (CO2) lambda:  0 occupancy:  0 (0.000000)
    net charge:   0.00000000 [e]

Amount of molecules per component :
-------------------------------------------------------------------------------
Component 0 (CO2)
    molecules:         2.420000e+02 molecules
    number density:    1.505149e-02 molec/A^3
    density:           1.099687e+03 kg/m^3

Total potential energy/kʙ       -3.929019e+05 [K]
-------------------------------------------------------------------------------
    external field VDW/kʙ        0.000000e+00 [K]
    external field Real/kʙ       0.000000e+00 [K]
    framework-molecule VDW/kʙ    0.000000e+00 [K]
    framework-molecule Real/kʙ   0.000000e+00 [K]
    molecule-molecule VDW/kʙ    -2.871575e+05 [K]
    molecule-molecule Real/kʙ   -9.024475e+04 [K]
    Van der Waals (Tail)/kʙ     -6.764426e+03 [K]
    Ewald Fourier/kʙ             5.495782e+03 [K]
    Ewald self/kʙ               -4.444761e+06 [K]
    Ewald exclusion/kʙ           4.430530e+06 [K]
    intra VDW/kʙ                 0.000000e+00 [K]
    intra Coulombic/kʙ           0.000000e+00 [K]
    polarization/kʙ              0.000000e+00 [K]
    dU/dlambda VDW/kʙ            0.000000e+00 [K]
    dU/dlambda Real/kʙ           0.000000e+00 [K]
    dU/dlambda Ewald/kʙ          0.000000e+00 [K]


Initialization: Current cycle: 1900 out of 2000
===============================================================================

Box:      25.30460   0.00000   0.00000
           0.00000  25.30460   0.00000
           0.00000   0.00000  25.30460
Lengths:  25.30460  25.30460  25.30460
Angles:   90.00000  90.00000  90.00000
Rectangular boundary conditions

net charge:   0.00000000

component   0 (CO2) lambda:  0 occupancy:  0 (0.000000)
    net charge:   0.00000000 [e]

Amount of molecules per component :
-------------------------------------------------------------------------------
Component 0 (CO2)
    molecules:         2.420000e+02 molecules
    number density:    1.493541e-02 molec/A^3
    density:           1.091207e+03 kg/m^3

Total potential energy/kʙ       -3.856936e+05 [K]
-------------------------------------------------------------------------------
    external field VDW/kʙ        0.000000e+00 [K]
    external field Real/kʙ       0.000000e+00 [K]
    framework-molecule VDW/kʙ    0.000000e+00 [K]
    framework-molecule Real/kʙ   0.000000e+00 [K]
    molecule-molecule VDW/kʙ    -2.815666e+05 [K]
    molecule-molecule Real/kʙ   -8.870575e+04 [K]
    Van der Waals (Tail)/kʙ     -6.712260e+03 [K]
    Ewald Fourier/kʙ             5.522042e+03 [K]
    Ewald self/kʙ               -4.444761e+06 [K]
    Ewald exclusion/kʙ           4.430530e+06 [K]
    intra VDW/kʙ                 0.000000e+00 [K]
    intra Coulombic/kʙ           0.000000e+00 [K]
    polarization/kʙ              0.000000e+00 [K]
    dU/dlambda VDW/kʙ            0.000000e+00 [K]
    dU/dlambda Real/kʙ           0.000000e+00 [K]
    dU/dlambda Ewald/kʙ          0.000000e+00 [K]


Current cycle: 0 out of 6000
===============================================================================

Box:      25.00577   0.00000   0.00000  Average:  25.00577   0.00000   0.00000
           0.00000  25.00577   0.00000             0.00000  25.00577   0.00000
           0.00000   0.00000  25.00577             0.00000   0.00000  25.00577
Lengths:  25.00577  25.00577  25.00577  Average:  25.00577  25.00577  25.00577
Angles:   90.00000  90.00000  90.00000  Average:  90.00000  90.00000  90.00000
Rectangular boundary conditions

net charge:   0.00000000

component 0 (CO2) lambda:  0 occupancy:  0 (0.000000)
    net charge:   0.00000000 [e]

Amount of molecules per component :
-------------------------------------------------------------------------------
Component 0 (CO2)
    molecules:      2.370000e+02 molecules  (2.370000e+02 +/- 0.000000e+00)
    number density: 1.515750e-02 molec./A^3 (1.515750e-02 +/- 0.000000e+00)
    density:        1.107433e+03 kg/m^3     (1.107433e+03 +/- 0.000000e+00)

Average pressure tensor: 
-------------------------------------------------------------------------------
 4.8133e+02  0.0000e+00  0.0000e+00 +/- 0.0000e+00 0.0000e+00 0.0000e+00 [bar]
 0.0000e+00  4.8133e+02  0.0000e+00 +/- 0.0000e+00 0.0000e+00 0.0000e+00 [bar]
 0.0000e+00  0.0000e+00  4.8133e+02 +/- 0.0000e+00 0.0000e+00 0.0000e+00 [bar]
Ideal-gas pressure:   4.813259e+02 +/ 0.000000e+00 [bar]
Excess pressure:      0.000000e+00 +/ 0.000000e+00 [bar]
Pressure:             4.813259e+02 +/ 0.000000e+00 [bar]

Total potential energy/kʙ  -3.845851e+05 (-3.845851e+05 +/- 0.000000e+00) [K]
-------------------------------------------------------------------------------
ExternalField-molecule
    Van der Waals/kʙ        0.000000e+00 ( 0.000000e+00 +/- 0.000000e+00) [K]
Framework-molecule
    Van der Waals/kʙ        0.000000e+00 ( 0.000000e+00 +/- 0.000000e+00) [K]
    Van der Waals (Tail)/kʙ 0.000000e+00 ( 0.000000e+00 +/- 0.000000e+00) [K]
    Coulombic Real/kʙ       0.000000e+00 ( 0.000000e+00 +/- 0.000000e+00) [K]
    Coulombic Fourier/kʙ    0.000000e+00 ( 0.000000e+00 +/- 0.000000e+00) [K]
Molecule-molecule
    Van der Waals/kʙ       -2.750024e+05 (-2.750024e+05 +/- 0.000000e+00) [K]
    Van der Waals (Tail)/kʙ-6.671327e+03 (-6.671327e+03 +/- 0.000000e+00) [K]
    Coulombic Real/kʙ      -9.380573e+04 (-9.380573e+04 +/- 0.000000e+00) [K]
    Coulombic Fourier/kʙ   -9.105622e+03 (-9.105622e+03 +/- 0.000000e+00) [K]
    Molecule Intra/kʙ       0.000000e+00 ( 0.000000e+00 +/- 0.000000e+00) [K]

Current cycle: 100 out of 6000
===============================================================================

Box:      25.04651   0.00000   0.00000  Average:  25.10277   0.00000   0.00000
           0.00000  25.04651   0.00000             0.00000  25.10277   0.00000
           0.00000   0.00000  25.04651             0.00000   0.00000  25.10277
Lengths:  25.04651  25.04651  25.04651  Average:  25.10277  25.10277  25.10277
Angles:   90.00000  90.00000  90.00000  Average:  90.00000  90.00000  90.00000
Rectangular boundary conditions

net charge:   0.00000000

component 0 (CO2) lambda:  0 occupancy:  0 (0.000000)
    net charge:   0.00000000 [e]

Amount of molecules per component :
-------------------------------------------------------------------------------
Component 0 (CO2)
    molecules:      2.340000e+02 molecules  (2.387030e+02 +/- 0.000000e+00)
    number density: 1.489272e-02 molec./A^3 (1.509078e-02 +/- 0.000000e+00)
    density:        1.088088e+03 kg/m^3     (1.102558e+03 +/- 0.000000e+00)

Average pressure tensor: 
-------------------------------------------------------------------------------
-2.5960e+02  3.5641e+01 -7.4189e+01 +/- 0.0000e+00 0.0000e+00 0.0000e+00 [bar]
 3.5641e+01  2.1785e+02 -1.2324e+02 +/- 0.0000e+00 0.0000e+00 0.0000e+00 [bar]
-7.4189e+01 -1.2324e+02  1.1305e+02 +/- 0.0000e+00 0.0000e+00 0.0000e+00 [bar]
Ideal-gas pressure:   4.792070e+02 +/ 0.000000e+00 [bar]
Excess pressure:     -4.554437e+02 +/ 0.000000e+00 [bar]
Pressure:             2.376333e+01 +/ 0.000000e+00 [bar]

Total potential energy/kʙ  -3.735576e+05 (-3.847247e+05 +/- 0.000000e+00) [K]
-------------------------------------------------------------------------------
ExternalField-molecule
    Van der Waals/kʙ        0.000000e+00 ( 0.000000e+00 +/- 0.000000e+00) [K]
Framework-molecule
    Van der Waals/kʙ        0.000000e+00 ( 0.000000e+00 +/- 0.000000e+00) [K]
    Van der Waals (Tail)/kʙ 0.000000e+00 ( 0.000000e+00 +/- 0.000000e+00) [K]
    Coulombic Real/kʙ       0.000000e+00 ( 0.000000e+00 +/- 0.000000e+00) [K]
    Coulombic Fourier/kʙ    0.000000e+00 ( 0.000000e+00 +/- 0.000000e+00) [K]
Molecule-molecule
    Van der Waals/kʙ       -2.686146e+05 (-2.767415e+05 +/- 0.000000e+00) [K]
    Van der Waals (Tail)/kʙ-6.471816e+03 (-6.681158e+03 +/- 0.000000e+00) [K]
    Coulombic Real/kʙ      -9.073376e+04 (-9.262317e+04 +/- 0.000000e+00) [K]
    Coulombic Fourier/kʙ   -7.737333e+03 (-8.678951e+03 +/- 0.000000e+00) [K]
    Molecule Intra/kʙ       0.000000e+00 ( 0.000000e+00 +/- 0.000000e+00) [K]

Current cycle: 200 out of 6000
===============================================================================

Box:      25.00819   0.00000   0.00000  Average:  25.13532   0.00000   0.00000
           0.00000  25.00819   0.00000             0.00000  25.13532   0.00000
           0.00000   0.00000  25.00819             0.00000   0.00000  25.13532
Lengths:  25.00819  25.00819  25.00819  Average:  25.13532  25.13532  25.13532
Angles:   90.00000  90.00000  90.00000  Average:  90.00000  90.00000  90.00000
Rectangular boundary conditions

net charge:   0.00000000

component 0 (CO2) lambda:  0 occupancy:  0 (0.000000)
    net charge:   0.00000000 [e]

Amount of molecules per component :
-------------------------------------------------------------------------------
Component 0 (CO2)
    molecules:      2.410000e+02 molecules  (2.389701e+02 +/- 0.000000e+00)
    number density: 1.540885e-02 molec./A^3 (1.504919e-02 +/- 0.000000e+00)
    density:        1.125797e+03 kg/m^3     (1.099520e+03 +/- 0.000000e+00)

Average pressure tensor: 
-------------------------------------------------------------------------------
-3.2624e+02 -2.6431e+01 -7.2275e+01 +/- 0.0000e+00 0.0000e+00 0.0000e+00 [bar]
-2.6431e+01  1.6645e+02 -1.4229e+02 +/- 0.0000e+00 0.0000e+00 0.0000e+00 [bar]
-7.2275e+01 -1.4229e+02  5.7245e+01 +/- 0.0000e+00 0.0000e+00 0.0000e+00 [bar]
Ideal-gas pressure:   4.778864e+02 +/ 0.000000e+00 [bar]
Excess pressure:     -5.120700e+02 +/ 0.000000e+00 [bar]
Pressure:            -3.418353e+01 +/ 0.000000e+00 [bar]

Total potential energy/kʙ  -3.914602e+05 (-3.851385e+05 +/- 0.000000e+00) [K]
-------------------------------------------------------------------------------
ExternalField-molecule
    Van der Waals/kʙ        0.000000e+00 ( 0.000000e+00 +/- 0.000000e+00) [K]
Framework-molecule
    Van der Waals/kʙ        0.000000e+00 ( 0.000000e+00 +/- 0.000000e+00) [K]
    Van der Waals (Tail)/kʙ 0.000000e+00 ( 0.000000e+00 +/- 0.000000e+00) [K]
    Coulombic Real/kʙ       0.000000e+00 ( 0.000000e+00 +/- 0.000000e+00) [K]
    Coulombic Fourier/kʙ    0.000000e+00 ( 0.000000e+00 +/- 0.000000e+00) [K]
Molecule-molecule
    Van der Waals/kʙ       -2.818370e+05 (-2.769644e+05 +/- 0.000000e+00) [K]
    Van der Waals (Tail)/kʙ-6.896418e+03 (-6.676083e+03 +/- 0.000000e+00) [K]
    Coulombic Real/kʙ      -9.429691e+04 (-9.297138e+04 +/- 0.000000e+00) [K]
    Coulombic Fourier/kʙ   -8.429872e+03 (-8.526682e+03 +/- 0.000000e+00) [K]
    Molecule Intra/kʙ       0.000000e+00 ( 0.000000e+00 +/- 0.000000e+00) [K]

Current cycle: 300 out of 6000
===============================================================================

Box:      25.28680   0.00000   0.00000  Average:  25.15946   0.00000   0.00000
           0.00000  25.28680   0.00000             0.00000  25.15946   0.00000
           0.00000   0.00000  25.28680             0.00000   0.00000  25.15946
Lengths:  25.28680  25.28680  25.28680  Average:  25.15946  25.15946  25.15946
Angles:   90.00000  90.00000  90.00000  Average:  90.00000  90.00000  90.00000
Rectangular boundary conditions

net charge:   0.00000000

component 0 (CO2) lambda:  0 occupancy:  0 (0.000000)
    net charge:   0.00000000 [e]

Amount of molecules per component :
-------------------------------------------------------------------------------
Component 0 (CO2)
    molecules:      2.350000e+02 molecules  (2.389502e+02 +/- 0.000000e+00)
    number density: 1.453403e-02 molec./A^3 (1.500531e-02 +/- 0.000000e+00)
    density:        1.061881e+03 kg/m^3     (1.096313e+03 +/- 0.000000e+00)

Average pressure tensor: 
-------------------------------------------------------------------------------
-1.8449e+02 -4.6899e+01 -2.2453e+01 +/- 0.0000e+00 0.0000e+00 0.0000e+00 [bar]
-4.6899e+01  9.3769e+01 -5.0148e-01 +/- 0.0000e+00 0.0000e+00 0.0000e+00 [bar]
-2.2453e+01 -5.0148e-01  3.8674e+01 +/- 0.0000e+00 0.0000e+00 0.0000e+00 [bar]
Ideal-gas pressure:   4.764929e+02 +/ 0.000000e+00 [bar]
Excess pressure:     -4.938423e+02 +/ 0.000000e+00 [bar]
Pressure:            -1.734939e+01 +/ 0.000000e+00 [bar]

Total potential energy/kʙ  -3.716256e+05 (-3.844522e+05 +/- 0.000000e+00) [K]
-------------------------------------------------------------------------------
ExternalField-molecule
    Van der Waals/kʙ        0.000000e+00 ( 0.000000e+00 +/- 0.000000e+00) [K]
Framework-molecule
    Van der Waals/kʙ        0.000000e+00 ( 0.000000e+00 +/- 0.000000e+00) [K]
    Van der Waals (Tail)/kʙ 0.000000e+00 ( 0.000000e+00 +/- 0.000000e+00) [K]
    Coulombic Real/kʙ       0.000000e+00 ( 0.000000e+00 +/- 0.000000e+00) [K]
    Coulombic Fourier/kʙ    0.000000e+00 ( 0.000000e+00 +/- 0.000000e+00) [K]
Molecule-molecule
    Van der Waals/kʙ       -2.697139e+05 (-2.763853e+05 +/- 0.000000e+00) [K]
    Van der Waals (Tail)/kʙ-6.342935e+03 (-6.664352e+03 +/- 0.000000e+00) [K]
    Coulombic Real/kʙ      -8.747299e+04 (-9.290551e+04 +/- 0.000000e+00) [K]
    Coulombic Fourier/kʙ   -8.095752e+03 (-8.496991e+03 +/- 0.000000e+00) [K]
    Molecule Intra/kʙ       0.000000e+00 ( 0.000000e+00 +/- 0.000000e+00) [K]

Current cycle: 400 out of 6000
===============================================================================

Box:      25.20464   0.00000   0.00000  Average:  25.18643   0.00000   0.00000
           0.00000  25.20464   0.00000             0.00000  25.18643   0.00000
           0.00000   0.00000  25.20464             0.00000   0.00000  25.18643
Lengths:  25.20464  25.20464  25.20464  Average:  25.18643  25.18643  25.18643
Angles:   90.00000  90.00000  90.00000  Average:  90.00000  90.00000  90.00000
Rectangular boundary conditions

net charge:   0.00000000

component 0 (CO2) lambda:  0 occupancy:  0 (0.000000)
    net charge:   0.00000000 [e]

Amount of molecules per component :
-------------------------------------------------------------------------------
Component 0 (CO2)
    molecules:      2.420000e+02 molecules  (2.394713e+02 +/- 0.000000e+00)
    number density: 1.511380e-02 molec./A^3 (1.498958e-02 +/- 0.000000e+00)
    density:        1.104240e+03 kg/m^3     (1.095164e+03 +/- 0.000000e+00)

Average pressure tensor: 
-------------------------------------------------------------------------------
-2.0155e+02 -5.0924e+01  4.6226e+01 +/- 0.0000e+00 0.0000e+00 0.0000e+00 [bar]
-5.0924e+01  1.3809e+02  3.6068e+01 +/- 0.0000e+00 0.0000e+00 0.0000e+00 [bar]
 4.6226e+01  3.6068e+01  1.5557e+01 +/- 0.0000e+00 0.0000e+00 0.0000e+00 [bar]
Ideal-gas pressure:   4.759933e+02 +/ 0.000000e+00 [bar]
Excess pressure:     -4.919601e+02 +/ 0.000000e+00 [bar]
Pressure:            -1.596678e+01 +/ 0.000000e+00 [bar]

Total potential energy/kʙ  -3.926552e+05 (-3.846337e+05 +/- 0.000000e+00) [K]
-------------------------------------------------------------------------------
ExternalField-molecule
    Van der Waals/kʙ        0.000000e+00 ( 0.000000e+00 +/- 0.000000e+00) [K]
Framework-molecule
    Van der Waals/kʙ        0.000000e+00 ( 0.000000e+00 +/- 0.000000e+00) [K]
    Van der Waals (Tail)/kʙ 0.000000e+00 ( 0.000000e+00 +/- 0.000000e+00) [K]
    Coulombic Real/kʙ       0.000000e+00 ( 0.000000e+00 +/- 0.000000e+00) [K]
    Coulombic Fourier/kʙ    0.000000e+00 ( 0.000000e+00 +/- 0.000000e+00) [K]
Molecule-molecule
    Van der Waals/kʙ       -2.795176e+05 (-2.764985e+05 +/- 0.000000e+00) [K]
    Van der Waals (Tail)/kʙ-6.792431e+03 (-6.672063e+03 +/- 0.000000e+00) [K]
    Coulombic Real/kʙ      -9.750182e+04 (-9.294817e+04 +/- 0.000000e+00) [K]
    Coulombic Fourier/kʙ   -8.843353e+03 (-8.514974e+03 +/- 0.000000e+00) [K]
    Molecule Intra/kʙ       0.000000e+00 ( 0.000000e+00 +/- 0.000000e+00) [K]

Current cycle: 500 out of 6000
===============================================================================

Box:      25.24437   0.00000   0.00000  Average:  25.20244   0.00000   0.00000
           0.00000  25.24437   0.00000             0.00000  25.20244   0.00000
           0.00000   0.00000  25.24437             0.00000   0.00000  25.20244
Lengths:  25.24437  25.24437  25.24437  Average:  25.20244  25.20244  25.20244
Angles:   90.00000  90.00000  90.00000  Average:  90.00000  90.00000  90.00000
Rectangular boundary conditions

net charge:   0.00000000

component 0 (CO2) lambda:  0 occupancy:  0 (0.000000)
    net charge:   0.00000000 [e]

Amount of molecules per component :
-------------------------------------------------------------------------------
Component 0 (CO2)
    molecules:      2.400000e+02 molecules  (2.396407e+02 +/- 0.000000e+00)
    number density: 1.491824e-02 molec./A^3 (1.497154e-02 +/- 0.000000e+00)
    density:        1.089952e+03 kg/m^3     (1.093846e+03 +/- 0.000000e+00)

Average pressure tensor: 
-------------------------------------------------------------------------------
-1.6900e+02 -2.7458e+01  4.5336e+01 +/- 0.0000e+00 0.0000e+00 0.0000e+00 [bar]
-2.7458e+01  1.1370e+02  2.2568e+01 +/- 0.0000e+00 0.0000e+00 0.0000e+00 [bar]
 4.5336e+01  2.2568e+01 -1.3320e+01 +/- 0.0000e+00 0.0000e+00 0.0000e+00 [bar]
Ideal-gas pressure:   4.754206e+02 +/ 0.000000e+00 [bar]
Excess pressure:     -4.982949e+02 +/ 0.000000e+00 [bar]
Pressure:            -2.287436e+01 +/ 0.000000e+00 [bar]

Total potential energy/kʙ  -3.850698e+05 (-3.836242e+05 +/- 0.000000e+00) [K]
-------------------------------------------------------------------------------
ExternalField-molecule
    Van der Waals/kʙ        0.000000e+00 ( 0.000000e+00 +/- 0.000000e+00) [K]
Framework-molecule
    Van der Waals/kʙ        0.000000e+00 ( 0.000000e+00 +/- 0.000000e+00) [K]
    Van der Waals (Tail)/kʙ 0.000000e+00 ( 0.000000e+00 +/- 0.000000e+00) [K]
    Coulombic Real/kʙ       0.000000e+00 ( 0.000000e+00 +/- 0.000000e+00) [K]
    Coulombic Fourier/kʙ    0.000000e+00 ( 0.000000e+00 +/- 0.000000e+00) [K]
Molecule-molecule
    Van der Waals/kʙ       -2.778916e+05 (-2.762466e+05 +/- 0.000000e+00) [K]
    Van der Waals (Tail)/kʙ-6.649134e+03 (-6.658133e+03 +/- 0.000000e+00) [K]
    Coulombic Real/kʙ      -9.143758e+04 (-9.212908e+04 +/- 0.000000e+00) [K]
    Coulombic Fourier/kʙ   -9.091535e+03 (-8.590378e+03 +/- 0.000000e+00) [K]
    Molecule Intra/kʙ       0.000000e+00 ( 0.000000e+00 +/- 0.000000e+00) [K]

Current cycle: 600 out of 6000
===============================================================================

Box:      25.03949   0.00000   0.00000  Average:  25.21405   0.00000   0.00000
           0.00000  25.03949   0.00000             0.00000  25.21405   0.00000
           0.00000   0.00000  25.03949             0.00000   0.00000  25.21405
Lengths:  25.03949  25.03949  25.03949  Average:  25.21405  25.21405  25.21405
Angles:   90.00000  90.00000  90.00000  Average:  90.00000  90.00000  90.00000
Rectangular boundary conditions

net charge:   0.00000000

component 0 (CO2) lambda:  0 occupancy:  0 (0.000000)
    net charge:   0.00000000 [e]

Amount of molecules per component :
-------------------------------------------------------------------------------
Component 0 (CO2)
    molecules:      2.330000e+02 molecules  (2.396839e+02 +/- 0.000000e+00)
    number density: 1.484156e-02 molec./A^3 (1.495355e-02 +/- 0.000000e+00)
    density:        1.084350e+03 kg/m^3     (1.092532e+03 +/- 0.000000e+00)

Average pressure tensor: 
-------------------------------------------------------------------------------
-1.7875e+02  1.1272e+01  4.0069e+01 +/- 0.0000e+00 0.0000e+00 0.0000e+00 [bar]
 1.1272e+01  6.5957e+01  7.7813e+00 +/- 0.0000e+00 0.0000e+00 0.0000e+00 [bar]
 4.0069e+01  7.7813e+00 -3.2143e+01 +/- 0.0000e+00 0.0000e+00 0.0000e+00 [bar]
Ideal-gas pressure:   4.748494e+02 +/ 0.000000e+00 [bar]
Excess pressure:     -5.231614e+02 +/ 0.000000e+00 [bar]
Pressure:            -4.831196e+01 +/ 0.000000e+00 [bar]

Total potential energy/kʙ  -3.680859e+05 (-3.829384e+05 +/- 0.000000e+00) [K]
-------------------------------------------------------------------------------
ExternalField-molecule
    Van der Waals/kʙ        0.000000e+00 ( 0.000000e+00 +/- 0.000000e+00) [K]
Framework-molecule
    Van der Waals/kʙ        0.000000e+00 ( 0.000000e+00 +/- 0.000000e+00) [K]
    Van der Waals (Tail)/kʙ 0.000000e+00 ( 0.000000e+00 +/- 0.000000e+00) [K]
    Coulombic Real/kʙ       0.000000e+00 ( 0.000000e+00 +/- 0.000000e+00) [K]
    Coulombic Fourier/kʙ    0.000000e+00 ( 0.000000e+00 +/- 0.000000e+00) [K]
Molecule-molecule
    Van der Waals/kʙ       -2.716300e+05 (-2.763336e+05 +/- 0.000000e+00) [K]
    Van der Waals (Tail)/kʙ-6.422020e+03 (-6.648731e+03 +/- 0.000000e+00) [K]
    Coulombic Real/kʙ      -8.162577e+04 (-9.132926e+04 +/- 0.000000e+00) [K]
    Coulombic Fourier/kʙ   -8.408100e+03 (-8.626769e+03 +/- 0.000000e+00) [K]
    Molecule Intra/kʙ       0.000000e+00 ( 0.000000e+00 +/- 0.000000e+00) [K]

Current cycle: 700 out of 6000
===============================================================================

Box:      25.31138   0.00000   0.00000  Average:  25.20815   0.00000   0.00000
           0.00000  25.31138   0.00000             0.00000  25.20815   0.00000
           0.00000   0.00000  25.31138             0.00000   0.00000  25.20815
Lengths:  25.31138  25.31138  25.31138  Average:  25.20815  25.20815  25.20815
Angles:   90.00000  90.00000  90.00000  Average:  90.00000  90.00000  90.00000
Rectangular boundary conditions

net charge:   0.00000000

component 0 (CO2) lambda:  0 occupancy:  0 (0.000000)
    net charge:   0.00000000 [e]

Amount of molecules per component :
-------------------------------------------------------------------------------
Component 0 (CO2)
    molecules:      2.420000e+02 molecules  (2.394993e+02 +/- 0.000000e+00)
    number density: 1.492340e-02 molec./A^3 (1.495235e-02 +/- 0.000000e+00)
    density:        1.090329e+03 kg/m^3     (1.092444e+03 +/- 0.000000e+00)

Average pressure tensor: 
-------------------------------------------------------------------------------
-1.4582e+02 -4.5515e+00  2.1984e+01 +/- 0.0000e+00 0.0000e+00 0.0000e+00 [bar]
-4.5515e+00  2.2202e+01 -9.1455e+00 +/- 0.0000e+00 0.0000e+00 0.0000e+00 [bar]
 2.1984e+01 -9.1455e+00  8.8310e+00 +/- 0.0000e+00 0.0000e+00 0.0000e+00 [bar]
Ideal-gas pressure:   4.748112e+02 +/ 0.000000e+00 [bar]
Excess pressure:     -5.130729e+02 +/ 0.000000e+00 [bar]
Pressure:            -3.826175e+01 +/ 0.000000e+00 [bar]

Total potential energy/kʙ  -3.826061e+05 (-3.822365e+05 +/- 0.000000e+00) [K]
-------------------------------------------------------------------------------
ExternalField-molecule
    Van der Waals/kʙ        0.000000e+00 ( 0.000000e+00 +/- 0.000000e+00) [K]
Framework-molecule
    Van der Waals/kʙ        0.000000e+00 ( 0.000000e+00 +/- 0.000000e+00) [K]
    Van der Waals (Tail)/kʙ 0.000000e+00 ( 0.000000e+00 +/- 0.000000e+00) [K]
    Coulombic Real/kʙ       0.000000e+00 ( 0.000000e+00 +/- 0.000000e+00) [K]
    Coulombic Fourier/kʙ    0.000000e+00 ( 0.000000e+00 +/- 0.000000e+00) [K]
Molecule-molecule
    Van der Waals/kʙ       -2.691405e+05 (-2.761464e+05 +/- 0.000000e+00) [K]
    Van der Waals (Tail)/kʙ-6.706863e+03 (-6.649580e+03 +/- 0.000000e+00) [K]
    Coulombic Real/kʙ      -9.773025e+04 (-9.082276e+04 +/- 0.000000e+00) [K]
    Coulombic Fourier/kʙ   -9.028491e+03 (-8.617703e+03 +/- 0.000000e+00) [K]
    Molecule Intra/kʙ       0.000000e+00 ( 0.000000e+00 +/- 0.000000e+00) [K]

Current cycle: 800 out of 6000
===============================================================================

Box:      25.46664   0.00000   0.00000  Average:  25.22640   0.00000   0.00000
           0.00000  25.46664   0.00000             0.00000  25.22640   0.00000
           0.00000   0.00000  25.46664             0.00000   0.00000  25.22640
Lengths:  25.46664  25.46664  25.46664  Average:  25.22640  25.22640  25.22640
Angles:   90.00000  90.00000  90.00000  Average:  90.00000  90.00000  90.00000
Rectangular boundary conditions

net charge:   0.00000000

component 0 (CO2) lambda:  0 occupancy:  0 (0.000000)
    net charge:   0.00000000 [e]

Amount of molecules per component :
-------------------------------------------------------------------------------
Component 0 (CO2)
    molecules:      2.430000e+02 molecules  (2.396754e+02 +/- 0.000000e+00)
    number density: 1.471266e-02 molec./A^3 (1.493103e-02 +/- 0.000000e+00)
    density:        1.074932e+03 kg/m^3     (1.090887e+03 +/- 0.000000e+00)

Average pressure tensor: 
-------------------------------------------------------------------------------
-1.2079e+02 -9.2203e+00  5.9602e+01 +/- 0.0000e+00 0.0000e+00 0.0000e+00 [bar]
-9.2203e+00  2.2647e+01 -2.5076e+00 +/- 0.0000e+00 0.0000e+00 0.0000e+00 [bar]
 5.9602e+01 -2.5076e+00  1.0208e+01 +/- 0.0000e+00 0.0000e+00 0.0000e+00 [bar]
Ideal-gas pressure:   4.741344e+02 +/ 0.000000e+00 [bar]
Excess pressure:     -5.034452e+02 +/ 0.000000e+00 [bar]
Pressure:            -2.931085e+01 +/ 0.000000e+00 [bar]

Total potential energy/kʙ  -3.853555e+05 (-3.817063e+05 +/- 0.000000e+00) [K]
-------------------------------------------------------------------------------
ExternalField-molecule
    Van der Waals/kʙ        0.000000e+00 ( 0.000000e+00 +/- 0.000000e+00) [K]
Framework-molecule
    Van der Waals/kʙ        0.000000e+00 ( 0.000000e+00 +/- 0.000000e+00) [K]
    Van der Waals (Tail)/kʙ 0.000000e+00 ( 0.000000e+00 +/- 0.000000e+00) [K]
    Coulombic Real/kʙ       0.000000e+00 ( 0.000000e+00 +/- 0.000000e+00) [K]
    Coulombic Fourier/kʙ    0.000000e+00 ( 0.000000e+00 +/- 0.000000e+00) [K]
Molecule-molecule
    Van der Waals/kʙ       -2.749803e+05 (-2.754855e+05 +/- 0.000000e+00) [K]
    Van der Waals (Tail)/kʙ-6.639475e+03 (-6.641988e+03 +/- 0.000000e+00) [K]
    Coulombic Real/kʙ      -9.526403e+04 (-9.095098e+04 +/- 0.000000e+00) [K]
    Coulombic Fourier/kʙ   -8.471658e+03 (-8.627759e+03 +/- 0.000000e+00) [K]
    Molecule Intra/kʙ       0.000000e+00 ( 0.000000e+00 +/- 0.000000e+00) [K]

Current cycle: 900 out of 6000
===============================================================================

Box:      25.43504   0.00000   0.00000  Average:  25.24775   0.00000   0.00000
           0.00000  25.43504   0.00000             0.00000  25.24775   0.00000
           0.00000   0.00000  25.43504             0.00000   0.00000  25.24775
Lengths:  25.43504  25.43504  25.43504  Average:  25.24775  25.24775  25.24775
Angles:   90.00000  90.00000  90.00000  Average:  90.00000  90.00000  90.00000
Rectangular boundary conditions

net charge:   0.00000000

component 0 (CO2) lambda:  0 occupancy:  0 (0.000000)
    net charge:   0.00000000 [e]

Amount of molecules per component :
-------------------------------------------------------------------------------
Component 0 (CO2)
    molecules:      2.450000e+02 molecules  (2.400078e+02 +/- 0.000000e+00)
    number density: 1.488911e-02 molec./A^3 (1.491394e-02 +/- 0.000000e+00)
    density:        1.087824e+03 kg/m^3     (1.089638e+03 +/- 0.000000e+00)

Average pressure tensor: 
-------------------------------------------------------------------------------
-1.1590e+02 -1.4800e+01  7.0468e+01 +/- 0.0000e+00 0.0000e+00 0.0000e+00 [bar]
-1.4800e+01 -2.4905e+01 -1.1437e+01 +/- 0.0000e+00 0.0000e+00 0.0000e+00 [bar]
 7.0468e+01 -1.1437e+01  9.3495e+00 +/- 0.0000e+00 0.0000e+00 0.0000e+00 [bar]
Ideal-gas pressure:   4.735915e+02 +/ 0.000000e+00 [bar]
Excess pressure:     -5.174090e+02 +/ 0.000000e+00 [bar]
Pressure:            -4.381756e+01 +/ 0.000000e+00 [bar]

Total potential energy/kʙ  -3.930374e+05 (-3.824637e+05 +/- 0.000000e+00) [K]
-------------------------------------------------------------------------------
ExternalField-molecule
    Van der Waals/kʙ        0.000000e+00 ( 0.000000e+00 +/- 0.000000e+00) [K]
Framework-molecule
    Van der Waals/kʙ        0.000000e+00 ( 0.000000e+00 +/- 0.000000e+00) [K]
    Van der Waals (Tail)/kʙ 0.000000e+00 ( 0.000000e+00 +/- 0.000000e+00) [K]
    Coulombic Real/kʙ       0.000000e+00 ( 0.000000e+00 +/- 0.000000e+00) [K]
    Coulombic Fourier/kʙ    0.000000e+00 ( 0.000000e+00 +/- 0.000000e+00) [K]
Molecule-molecule
    Van der Waals/kʙ       -2.832583e+05 (-2.757425e+05 +/- 0.000000e+00) [K]
    Van der Waals (Tail)/kʙ-6.774404e+03 (-6.645716e+03 +/- 0.000000e+00) [K]
    Coulombic Real/kʙ      -9.433774e+04 (-9.143544e+04 +/- 0.000000e+00) [K]
    Coulombic Fourier/kʙ   -8.666932e+03 (-8.640051e+03 +/- 0.000000e+00) [K]
    Molecule Intra/kʙ       0.000000e+00 ( 0.000000e+00 +/- 0.000000e+00) [K]

Current cycle: 1000 out of 6000
===============================================================================

Box:      25.12892   0.00000   0.00000  Average:  25.24924   0.00000   0.00000
           0.00000  25.12892   0.00000             0.00000  25.24924   0.00000
           0.00000   0.00000  25.12892             0.00000   0.00000  25.24924
Lengths:  25.12892  25.12892  25.12892  Average:  25.24924  25.24924  25.24924
Angles:   90.00000  90.00000  90.00000  Average:  90.00000  90.00000  90.00000
Rectangular boundary conditions

net charge:   0.00000000

component 0 (CO2) lambda:  0 occupancy:  0 (0.000000)
    net charge:   0.00000000 [e]

Amount of molecules per component :
-------------------------------------------------------------------------------
Component 0 (CO2)
    molecules:      2.410000e+02 molecules  (2.402657e+02 +/- 0.000000e+00)
    number density: 1.518782e-02 molec./A^3 (1.492733e-02 +/- 0.000000e+00)
    density:        1.109648e+03 kg/m^3     (1.090617e+03 +/- 0.000000e+00)

Average pressure tensor: 
-------------------------------------------------------------------------------
-8.1480e+01 -8.1589e+00  6.7607e+01 +/- 0.0000e+00 0.0000e+00 0.0000e+00 [bar]
-8.1589e+00 -4.5129e+01 -1.5728e+01 +/- 0.0000e+00 0.0000e+00 0.0000e+00 [bar]
 6.7607e+01 -1.5728e+01  1.2706e+01 +/- 0.0000e+00 0.0000e+00 0.0000e+00 [bar]
Ideal-gas pressure:   4.740168e+02 +/ 0.000000e+00 [bar]
Excess pressure:     -5.119845e+02 +/ 0.000000e+00 [bar]
Pressure:            -3.796763e+01 +/ 0.000000e+00 [bar]

Total potential energy/kʙ  -3.989033e+05 (-3.835253e+05 +/- 0.000000e+00) [K]
-------------------------------------------------------------------------------
ExternalField-molecule
    Van der Waals/kʙ        0.000000e+00 ( 0.000000e+00 +/- 0.000000e+00) [K]
Framework-molecule
    Van der Waals/kʙ        0.000000e+00 ( 0.000000e+00 +/- 0.000000e+00) [K]
    Van der Waals (Tail)/kʙ 0.000000e+00 ( 0.000000e+00 +/- 0.000000e+00) [K]
    Coulombic Real/kʙ       0.000000e+00 ( 0.000000e+00 +/- 0.000000e+00) [K]
    Coulombic Fourier/kʙ    0.000000e+00 ( 0.000000e+00 +/- 0.000000e+00) [K]
Molecule-molecule
    Van der Waals/kʙ       -2.875922e+05 (-2.761706e+05 +/- 0.000000e+00) [K]
    Van der Waals (Tail)/kʙ-6.797492e+03 (-6.655053e+03 +/- 0.000000e+00) [K]
    Coulombic Real/kʙ      -9.579192e+04 (-9.204762e+04 +/- 0.000000e+00) [K]
    Coulombic Fourier/kʙ   -8.721697e+03 (-8.652022e+03 +/- 0.000000e+00) [K]
    Molecule Intra/kʙ       0.000000e+00 ( 0.000000e+00 +/- 0.000000e+00) [K]

Current cycle: 1100 out of 6000
===============================================================================

Box:      24.90399   0.00000   0.00000  Average:  25.22501   0.00000   0.00000
           0.00000  24.90399   0.00000             0.00000  25.22501   0.00000
           0.00000   0.00000  24.90399             0.00000   0.00000  25.22501
Lengths:  24.90399  24.90399  24.90399  Average:  25.22501  25.22501  25.22501
Angles:   90.00000  90.00000  90.00000  Average:  90.00000  90.00000  90.00000
Rectangular boundary conditions

net charge:   0.00000000

component 0 (CO2) lambda:  0 occupancy:  0 (0.000000)
    net charge:   0.00000000 [e]

Amount of molecules per component :
-------------------------------------------------------------------------------
Component 0 (CO2)
    molecules:      2.420000e+02 molecules  (2.403424e+02 +/- 0.000000e+00)
    number density: 1.566782e-02 molec./A^3 (1.497613e-02 +/- 0.000000e+00)
    density:        1.144718e+03 kg/m^3     (1.094182e+03 +/- 0.000000e+00)

Average pressure tensor: 
-------------------------------------------------------------------------------
-6.2739e+01 -1.5438e+01  8.2475e+01 +/- 0.0000e+00 0.0000e+00 0.0000e+00 [bar]
-1.5438e+01 -6.9039e+01 -1.5681e+01 +/- 0.0000e+00 0.0000e+00 0.0000e+00 [bar]
 8.2475e+01 -1.5681e+01  3.0872e+01 +/- 0.0000e+00 0.0000e+00 0.0000e+00 [bar]
Ideal-gas pressure:   4.755664e+02 +/ 0.000000e+00 [bar]
Excess pressure:     -5.092018e+02 +/ 0.000000e+00 [bar]
Pressure:            -3.363539e+01 +/ 0.000000e+00 [bar]

Total potential energy/kʙ  -4.102890e+05 (-3.854893e+05 +/- 0.000000e+00) [K]
-------------------------------------------------------------------------------
ExternalField-molecule
    Van der Waals/kʙ        0.000000e+00 ( 0.000000e+00 +/- 0.000000e+00) [K]
Framework-molecule
    Van der Waals/kʙ        0.000000e+00 ( 0.000000e+00 +/- 0.000000e+00) [K]
    Van der Waals (Tail)/kʙ 0.000000e+00 ( 0.000000e+00 +/- 0.000000e+00) [K]
    Coulombic Real/kʙ       0.000000e+00 ( 0.000000e+00 +/- 0.000000e+00) [K]
    Coulombic Fourier/kʙ    0.000000e+00 ( 0.000000e+00 +/- 0.000000e+00) [K]
Molecule-molecule
    Van der Waals/kʙ       -2.921723e+05 (-2.776386e+05 +/- 0.000000e+00) [K]
    Van der Waals (Tail)/kʙ-7.041417e+03 (-6.683553e+03 +/- 0.000000e+00) [K]
    Coulombic Real/kʙ      -1.030420e+05 (-9.254624e+04 +/- 0.000000e+00) [K]
    Coulombic Fourier/kʙ   -8.033242e+03 (-8.620940e+03 +/- 0.000000e+00) [K]
    Molecule Intra/kʙ       0.000000e+00 ( 0.000000e+00 +/- 0.000000e+00) [K]

Current cycle: 1200 out of 6000
===============================================================================

Box:      25.01877   0.00000   0.00000  Average:  25.20104   0.00000   0.00000
           0.00000  25.01877   0.00000             0.00000  25.20104   0.00000
           0.00000   0.00000  25.01877             0.00000   0.00000  25.20104
Lengths:  25.01877  25.01877  25.01877  Average:  25.20104  25.20104  25.20104
Angles:   90.00000  90.00000  90.00000  Average:  90.00000  90.00000  90.00000
Rectangular boundary conditions

net charge:   0.00000000

component 0 (CO2) lambda:  0 occupancy:  0 (0.000000)
    net charge:   0.00000000 [e]

Amount of molecules per component :
-------------------------------------------------------------------------------
Component 0 (CO2)
    molecules:      2.450000e+02 molecules  (2.404688e+02 +/- 0.000000e+00)
    number density: 1.564474e-02 molec./A^3 (1.502780e-02 +/- 0.000000e+00)
    density:        1.143032e+03 kg/m^3     (1.097957e+03 +/- 0.000000e+00)

Average pressure tensor: 
-------------------------------------------------------------------------------
-5.8844e+01 -4.1893e+00  1.0028e+02 +/- 0.0000e+00 0.0000e+00 0.0000e+00 [bar]
-4.1893e+00 -7.2803e+01 -2.8381e+01 +/- 0.0000e+00 0.0000e+00 0.0000e+00 [bar]
 1.0028e+02 -2.8381e+01  3.0066e+01 +/- 0.0000e+00 0.0000e+00 0.0000e+00 [bar]
Ideal-gas pressure:   4.772072e+02 +/ 0.000000e+00 [bar]
Excess pressure:     -5.110673e+02 +/ 0.000000e+00 [bar]
Pressure:            -3.386014e+01 +/ 0.000000e+00 [bar]

Total potential energy/kʙ  -4.205886e+05 (-3.876076e+05 +/- 0.000000e+00) [K]
-------------------------------------------------------------------------------
ExternalField-molecule
    Van der Waals/kʙ        0.000000e+00 ( 0.000000e+00 +/- 0.000000e+00) [K]
Framework-molecule
    Van der Waals/kʙ        0.000000e+00 ( 0.000000e+00 +/- 0.000000e+00) [K]
    Van der Waals (Tail)/kʙ 0.000000e+00 ( 0.000000e+00 +/- 0.000000e+00) [K]
    Coulombic Real/kʙ       0.000000e+00 ( 0.000000e+00 +/- 0.000000e+00) [K]
    Coulombic Fourier/kʙ    0.000000e+00 ( 0.000000e+00 +/- 0.000000e+00) [K]
Molecule-molecule
    Van der Waals/kʙ       -2.941014e+05 (-2.788985e+05 +/- 0.000000e+00) [K]
    Van der Waals (Tail)/kʙ-7.118209e+03 (-6.708898e+03 +/- 0.000000e+00) [K]
    Coulombic Real/kʙ      -1.095269e+05 (-9.334491e+04 +/- 0.000000e+00) [K]
    Coulombic Fourier/kʙ   -9.842128e+03 (-8.655309e+03 +/- 0.000000e+00) [K]
    Molecule Intra/kʙ       0.000000e+00 ( 0.000000e+00 +/- 0.000000e+00) [K]

Current cycle: 1300 out of 6000
===============================================================================

Box:      24.95153   0.00000   0.00000  Average:  25.18116   0.00000   0.00000
           0.00000  24.95153   0.00000             0.00000  25.18116   0.00000
           0.00000   0.00000  24.95153             0.00000   0.00000  25.18116
Lengths:  24.95153  24.95153  24.95153  Average:  25.18116  25.18116  25.18116
Angles:   90.00000  90.00000  90.00000  Average:  90.00000  90.00000  90.00000
Rectangular boundary conditions

net charge:   0.00000000

component 0 (CO2) lambda:  0 occupancy:  0 (0.000000)
    net charge:   0.00000000 [e]

Amount of molecules per component :
-------------------------------------------------------------------------------
Component 0 (CO2)
    molecules:      2.480000e+02 molecules  (2.407471e+02 +/- 0.000000e+00)
    number density: 1.596467e-02 molec./A^3 (1.508181e-02 +/- 0.000000e+00)
    density:        1.166406e+03 kg/m^3     (1.101903e+03 +/- 0.000000e+00)

Average pressure tensor: 
-------------------------------------------------------------------------------
-5.3476e+01 -6.9097e-01  9.6005e+01 +/- 0.0000e+00 0.0000e+00 0.0000e+00 [bar]
-6.9097e-01 -5.9222e+01 -1.8235e+01 +/- 0.0000e+00 0.0000e+00 0.0000e+00 [bar]
 9.6005e+01 -1.8235e+01  2.3323e+01 +/- 0.0000e+00 0.0000e+00 0.0000e+00 [bar]
Ideal-gas pressure:   4.789224e+02 +/ 0.000000e+00 [bar]
Excess pressure:     -5.087139e+02 +/ 0.000000e+00 [bar]
Pressure:            -2.979155e+01 +/ 0.000000e+00 [bar]

Total potential energy/kʙ  -4.386331e+05 (-3.901994e+05 +/- 0.000000e+00) [K]
-------------------------------------------------------------------------------
ExternalField-molecule
    Van der Waals/kʙ        0.000000e+00 ( 0.000000e+00 +/- 0.000000e+00) [K]
Framework-molecule
    Van der Waals/kʙ        0.000000e+00 ( 0.000000e+00 +/- 0.000000e+00) [K]
    Van der Waals (Tail)/kʙ 0.000000e+00 ( 0.000000e+00 +/- 0.000000e+00) [K]
    Coulombic Real/kʙ       0.000000e+00 ( 0.000000e+00 +/- 0.000000e+00) [K]
    Coulombic Fourier/kʙ    0.000000e+00 ( 0.000000e+00 +/- 0.000000e+00) [K]
Molecule-molecule
    Van der Waals/kʙ       -3.087272e+05 (-2.803986e+05 +/- 0.000000e+00) [K]
    Van der Waals (Tail)/kʙ-7.352719e+03 (-6.740219e+03 +/- 0.000000e+00) [K]
    Coulombic Real/kʙ      -1.125577e+05 (-9.433967e+04 +/- 0.000000e+00) [K]
    Coulombic Fourier/kʙ   -9.995414e+03 (-8.720871e+03 +/- 0.000000e+00) [K]
    Molecule Intra/kʙ       0.000000e+00 ( 0.000000e+00 +/- 0.000000e+00) [K]

Current cycle: 1400 out of 6000
===============================================================================

Box:      25.07963   0.00000   0.00000  Average:  25.16188   0.00000   0.00000
           0.00000  25.07963   0.00000             0.00000  25.16188   0.00000
           0.00000   0.00000  25.07963             0.00000   0.00000  25.16188
Lengths:  25.07963  25.07963  25.07963  Average:  25.16188  25.16188  25.16188
Angles:   90.00000  90.00000  90.00000  Average:  90.00000  90.00000  90.00000
Rectangular boundary conditions

net charge:   0.00000000

component 0 (CO2) lambda:  0 occupancy:  0 (0.000000)
    net charge:   0.00000000 [e]

Amount of molecules per component :
-------------------------------------------------------------------------------
Component 0 (CO2)
    molecules:      2.410000e+02 molecules  (2.409129e+02 +/- 0.000000e+00)
    number density: 1.527755e-02 molec./A^3 (1.512769e-02 +/- 0.000000e+00)
    density:        1.116204e+03 kg/m^3     (1.105255e+03 +/- 0.000000e+00)

Average pressure tensor: 
-------------------------------------------------------------------------------
-4.0039e+01 -1.8714e+00  9.5238e+01 +/- 0.0000e+00 0.0000e+00 0.0000e+00 [bar]
-1.8714e+00 -4.4135e+01  4.7154e+00 +/- 0.0000e+00 0.0000e+00 0.0000e+00 [bar]
 9.5238e+01  4.7154e+00  6.3053e+00 +/- 0.0000e+00 0.0000e+00 0.0000e+00 [bar]
Ideal-gas pressure:   4.803792e+02 +/ 0.000000e+00 [bar]
Excess pressure:     -5.063352e+02 +/ 0.000000e+00 [bar]
Pressure:            -2.595598e+01 +/ 0.000000e+00 [bar]

Total potential energy/kʙ  -4.075915e+05 (-3.923221e+05 +/- 0.000000e+00) [K]
-------------------------------------------------------------------------------
ExternalField-molecule
    Van der Waals/kʙ        0.000000e+00 ( 0.000000e+00 +/- 0.000000e+00) [K]
Framework-molecule
    Van der Waals/kʙ        0.000000e+00 ( 0.000000e+00 +/- 0.000000e+00) [K]
    Van der Waals (Tail)/kʙ 0.000000e+00 ( 0.000000e+00 +/- 0.000000e+00) [K]
    Coulombic Real/kʙ       0.000000e+00 ( 0.000000e+00 +/- 0.000000e+00) [K]
    Coulombic Fourier/kʙ    0.000000e+00 ( 0.000000e+00 +/- 0.000000e+00) [K]
Molecule-molecule
    Van der Waals/kʙ       -2.886642e+05 (-2.815345e+05 +/- 0.000000e+00) [K]
    Van der Waals (Tail)/kʙ-6.837652e+03 (-6.766439e+03 +/- 0.000000e+00) [K]
    Coulombic Real/kʙ      -1.028043e+05 (-9.522330e+04 +/- 0.000000e+00) [K]
    Coulombic Fourier/kʙ   -9.285325e+03 (-8.797792e+03 +/- 0.000000e+00) [K]
    Molecule Intra/kʙ       0.000000e+00 ( 0.000000e+00 +/- 0.000000e+00) [K]

Current cycle: 1500 out of 6000
===============================================================================

Box:      24.89430   0.00000   0.00000  Average:  25.14982   0.00000   0.00000
           0.00000  24.89430   0.00000             0.00000  25.14982   0.00000
           0.00000   0.00000  24.89430             0.00000   0.00000  25.14982
[...]
    number density: 1.502433e-02 molec./A^3 (1.528787e-02 +/- 2.294499e-04)
    density:        1.097703e+03 kg/m^3     (1.116958e+03 +/- 1.676400e+01)

Average pressure tensor: 
-------------------------------------------------------------------------------
 2.7709e+01  1.8518e+01  1.6697e+01 +/- 1.1544e+02 7.2381e+01 6.9784e+01 [bar]
 1.8518e+01  4.8088e+00  2.7082e+00 +/- 7.2381e+01 7.5926e+01 3.1806e+01 [bar]
 1.6697e+01  2.7082e+00 -1.5708e+01 +/- 6.9784e+01 3.1806e+01 1.0518e+02 [bar]
Ideal-gas pressure:   4.854658e+02 +/ 7.286172e+00 [bar]
Excess pressure:     -4.798626e+02 +/ 4.690188e+01 [bar]
Pressure:             5.603114e+00 +/ 5.295995e+01 [bar]

Total potential energy/kʙ  -3.841047e+05 (-3.954108e+05 +/- 7.328533e+03) [K]
-------------------------------------------------------------------------------
ExternalField-molecule
    Van der Waals/kʙ        0.000000e+00 ( 0.000000e+00 +/- 0.000000e+00) [K]
Framework-molecule
    Van der Waals/kʙ        0.000000e+00 ( 0.000000e+00 +/- 0.000000e+00) [K]
    Van der Waals (Tail)/kʙ 0.000000e+00 ( 0.000000e+00 +/- 0.000000e+00) [K]
    Coulombic Real/kʙ       0.000000e+00 ( 0.000000e+00 +/- 0.000000e+00) [K]
    Coulombic Fourier/kʙ    0.000000e+00 ( 0.000000e+00 +/- 0.000000e+00) [K]
Molecule-molecule
    Van der Waals/kʙ       -2.757987e+05 (-2.823519e+05 +/- 3.782446e+03) [K]
    Van der Waals (Tail)/kʙ-6.584810e+03 (-6.798836e+03 +/- 8.349370e+01) [K]
    Coulombic Real/kʙ      -9.351935e+04 (-9.753726e+04 +/- 3.693825e+03) [K]
    Coulombic Fourier/kʙ   -8.201889e+03 (-8.722815e+03 +/- 1.867117e+02) [K]
    Molecule Intra/kʙ       0.000000e+00 ( 0.000000e+00 +/- 0.000000e+00) [K]

Current cycle: 5800 out of 6000
===============================================================================

Box:      24.91285   0.00000   0.00000  Average:  25.01642   0.00000   0.00000
           0.00000  24.91285   0.00000             0.00000  25.01642   0.00000
           0.00000   0.00000  24.91285             0.00000   0.00000  25.01642
Lengths:  24.91285  24.91285  24.91285  Average:  25.01642  25.01642  25.01642
Angles:   90.00000  90.00000  90.00000  Average:  90.00000  90.00000  90.00000
Rectangular boundary conditions

net charge:   0.00000000

component 0 (CO2) lambda:  0 occupancy:  0 (0.000000)
    net charge:   0.00000000 [e]

Amount of molecules per component :
-------------------------------------------------------------------------------
Component 0 (CO2)
    molecules:      2.360000e+02 molecules  (2.392800e+02 +/- 1.902769e+00)
    number density: 1.526307e-02 molec./A^3 (1.528675e-02 +/- 2.222907e-04)
    density:        1.115146e+03 kg/m^3     (1.116876e+03 +/- 1.624094e+01)

Average pressure tensor: 
-------------------------------------------------------------------------------
 2.6157e+01  1.7150e+01  1.5118e+01 +/- 1.0209e+02 7.2914e+01 7.0865e+01 [bar]
 1.7150e+01 -2.5256e+00 -1.5249e+00 +/- 7.2914e+01 8.8293e+01 3.5425e+01 [bar]
 1.5118e+01 -1.5249e+00 -1.3187e+01 +/- 7.0865e+01 3.5425e+01 1.0705e+02 [bar]
Ideal-gas pressure:   4.854302e+02 +/ 7.058831e+00 [bar]
Excess pressure:     -4.819488e+02 +/ 4.034349e+01 [bar]
Pressure:             3.481401e+00 +/ 4.617766e+01 [bar]

Total potential energy/kʙ  -3.845369e+05 (-3.953200e+05 +/- 7.363473e+03) [K]
-------------------------------------------------------------------------------
ExternalField-molecule
    Van der Waals/kʙ        0.000000e+00 ( 0.000000e+00 +/- 0.000000e+00) [K]
Framework-molecule
    Van der Waals/kʙ        0.000000e+00 ( 0.000000e+00 +/- 0.000000e+00) [K]
    Van der Waals (Tail)/kʙ 0.000000e+00 ( 0.000000e+00 +/- 0.000000e+00) [K]
    Coulombic Real/kʙ       0.000000e+00 ( 0.000000e+00 +/- 0.000000e+00) [K]
    Coulombic Fourier/kʙ    0.000000e+00 ( 0.000000e+00 +/- 0.000000e+00) [K]
Molecule-molecule
    Van der Waals/kʙ       -2.798482e+05 (-2.823387e+05 +/- 3.782768e+03) [K]
    Van der Waals (Tail)/kʙ-6.689446e+03 (-6.797418e+03 +/- 8.348729e+01) [K]
    Coulombic Real/kʙ      -9.006256e+04 (-9.746826e+04 +/- 3.733692e+03) [K]
    Coulombic Fourier/kʙ   -7.936657e+03 (-8.715625e+03 +/- 1.852456e+02) [K]
    Molecule Intra/kʙ       0.000000e+00 ( 0.000000e+00 +/- 0.000000e+00) [K]

Current cycle: 5900 out of 6000
===============================================================================

Box:      24.94672   0.00000   0.00000  Average:  25.01333   0.00000   0.00000
           0.00000  24.94672   0.00000             0.00000  25.01333   0.00000
           0.00000   0.00000  24.94672             0.00000   0.00000  25.01333
Lengths:  24.94672  24.94672  24.94672  Average:  25.01333  25.01333  25.01333
Angles:   90.00000  90.00000  90.00000  Average:  90.00000  90.00000  90.00000
Rectangular boundary conditions

net charge:   0.00000000

component 0 (CO2) lambda:  0 occupancy:  0 (0.000000)
    net charge:   0.00000000 [e]

Amount of molecules per component :
-------------------------------------------------------------------------------
Component 0 (CO2)
    molecules:      2.380000e+02 molecules  (2.392671e+02 +/- 1.819242e+00)
    number density: 1.532980e-02 molec./A^3 (1.529160e-02 +/- 2.253460e-04)
    density:        1.120022e+03 kg/m^3     (1.117230e+03 +/- 1.646417e+01)

Average pressure tensor: 
-------------------------------------------------------------------------------
 2.7600e+01  2.0107e+01  1.6821e+01 +/- 9.9446e+01 7.1892e+01 6.7367e+01 [bar]
 2.0107e+01 -1.5269e+00 -3.4086e+00 +/- 7.1892e+01 8.3260e+01 3.7589e+01 [bar]
 1.6821e+01 -3.4086e+00 -1.1538e+01 +/- 6.7367e+01 3.7589e+01 1.0753e+02 [bar]
Ideal-gas pressure:   4.855841e+02 +/ 7.155854e+00 [bar]
Excess pressure:     -4.807392e+02 +/ 4.140956e+01 [bar]
Pressure:             4.844861e+00 +/ 4.735951e+01 [bar]

Total potential energy/kʙ  -3.984795e+05 (-3.953803e+05 +/- 7.294298e+03) [K]
-------------------------------------------------------------------------------
ExternalField-molecule
    Van der Waals/kʙ        0.000000e+00 ( 0.000000e+00 +/- 0.000000e+00) [K]
Framework-molecule
    Van der Waals/kʙ        0.000000e+00 ( 0.000000e+00 +/- 0.000000e+00) [K]
    Van der Waals (Tail)/kʙ 0.000000e+00 ( 0.000000e+00 +/- 0.000000e+00) [K]
    Coulombic Real/kʙ       0.000000e+00 ( 0.000000e+00 +/- 0.000000e+00) [K]
    Coulombic Fourier/kʙ    0.000000e+00 ( 0.000000e+00 +/- 0.000000e+00) [K]
Molecule-molecule
    Van der Waals/kʙ       -2.874852e+05 (-2.824285e+05 +/- 3.757772e+03) [K]
    Van der Waals (Tail)/kʙ-6.775630e+03 (-6.798783e+03 +/- 8.347926e+01) [K]
    Coulombic Real/kʙ      -9.604160e+04 (-9.744822e+04 +/- 3.719820e+03) [K]
    Coulombic Fourier/kʙ   -8.177061e+03 (-8.704724e+03 +/- 1.882848e+02) [K]
    Molecule Intra/kʙ       0.000000e+00 ( 0.000000e+00 +/- 0.000000e+00) [K]


Energy statistics             |  Energy [K]   | Recomputed [K]|  Drift [K]    |
===============================================================================
Total potential energy/kʙ     | -3.865042e+05 | -3.865042e+05 |  4.386424e-10 |
    external field VDW/kʙ     |  0.000000e+00 |  0.000000e+00 |  0.000000e+00 |
    external field Real/kʙ    |  0.000000e+00 |  0.000000e+00 |  0.000000e+00 |
    framework-molecule VDW/kʙ |  0.000000e+00 |  0.000000e+00 |  0.000000e+00 |
    framework-molecule Real/kʙ|  0.000000e+00 |  0.000000e+00 |  0.000000e+00 |
    molecule-molecule VDW/kʙ  | -2.746683e+05 | -2.746683e+05 | -1.750194e-10 |
    molecule-molecule Real/kʙ | -9.653283e+04 | -9.653283e+04 |  7.000777e-11 |
    Van der Waals (Tail)/kʙ   | -6.801121e+03 | -6.801121e+03 | -2.406517e-11 |
    Ewald Fourier/kʙ          |  5.199766e+03 |  5.199766e+03 |  7.657100e-12 |
    Ewald self/kʙ             | -4.279460e+06 | -4.279460e+06 |  0.000000e+00 |
    Ewald exclusion/kʙ        |  4.265759e+06 |  4.265759e+06 |  5.600621e-10 |
    intra VDW/kʙ              |  0.000000e+00 |  0.000000e+00 |  0.000000e+00 |
    intra Coulombic/kʙ        |  0.000000e+00 |  0.000000e+00 |  0.000000e+00 |
    polarization/kʙ           |  0.000000e+00 |  0.000000e+00 |  0.000000e+00 |
    dU/dlambda VDW/kʙ         |  0.000000e+00 |  0.000000e+00 |  0.000000e+00 |
    dU/dlambda Real/kʙ        |  0.000000e+00 |  0.000000e+00 |  0.000000e+00 |
    dU/dlambda Ewald/kʙ       |  0.000000e+00 |  0.000000e+00 |  0.000000e+00 |
-------------------------------------------------------------------------------


Monte-Carlo moves statistics
===============================================================================

    Gibbs volume         all:                3017
    Gibbs volume         total:              5930
    Gibbs volume         constructed:        5930
    Gibbs volume         accepted:           1810
    Gibbs volume         fraction:       0.305228
    Gibbs volume         max-change:     0.036080

Component 0 [CO2]
    Reinsertion (CBMC)   all:              149054
    Reinsertion (CBMC)   total:            149054
    Reinsertion (CBMC)   constructed:      121800
    Reinsertion (CBMC)   accepted:            750
    Reinsertion (CBMC)   fraction:       0.005032
    Reinsertion (CBMC)   max-change:     0.000000

    Gibbs swap (CBMC)    all:              299012
    Gibbs swap (CBMC)    total:            598423
    Gibbs swap (CBMC)    constructed:      540669
    Gibbs swap (CBMC)    accepted:          16251
    Gibbs swap (CBMC)    fraction:       0.027156
    Gibbs swap (CBMC)    max-change:     0.000000

    Translation          all:              148926
    Translation          total:             49653      49776      49497
    Translation          constructed:       49653      49776      49497
    Translation          accepted:          32063      22387      23129
    Translation          fraction:       0.645741   0.449755   0.467281
    Translation          max-change:     0.481117   0.628243   0.620648

    Rotation             all:              149598
    Rotation             total:             49873      49827      49898
    Rotation             constructed:       49873      49827      49852
    Rotation             accepted:          26125      27721      17098
    Rotation             fraction:       0.523831   0.556345   0.342659
    Rotation             max-change:     0.601575   0.575506   0.714726



Production run counting of the MC moves summed over systems and components
===============================================================================

Reinsertion (CBMC)                   298396 (19.8931 [%])
Gibbs volume                           5930 (0.3953 [%])
Gibbs swap (CBMC)                    598432 (39.8955 [%])
Translation                          298379 (19.8919 [%])
Rotation                             298863 (19.9242 [%])

Production count MC-steps:          1500000 [-]
               All summed:          1500000 [-]
               difference:                0 [-]


Production run CPU timings of the MC moves
===============================================================================

Component 0 CO2

Rotation                             23.612992 [s]
    Ewald                             5.290179 [s]
    ExternalField-Molecule            0.007614 [s]
    Framework-Molecule                0.008145 [s]
    Molecule-Molecule                17.855096 [s]
    Overhead                          0.451958 [s]

Reinsertion (CBMC)                  116.767719 [s]
    Ewald                             4.416795 [s]
    NonEwald                        112.221326 [s]
    Overhead                          0.129598 [s]

Translation                          23.550931 [s]
    Ewald                             5.262651 [s]
    ExternalField-Molecule            0.008303 [s]
    Framework-Molecule                0.012536 [s]
    Molecule-Molecule                17.800468 [s]
    Overhead                          0.466973 [s]



Gibbs swap (CBMC)                   153.183450 [s]
    Ewald                            13.808878 [s]
    NonEwald                        137.942499 [s]
    Tail                              1.011289 [s]

Gibbs volume                         30.567289 [s]
    Ewald                             6.306233 [s]
    NonEwald                         22.979137 [s]
    Tail                              1.146876 [s]

Property sampling                     0.330789 [s]
Energy/pressure sampling:            11.054717 [s]


Production run CPU timings of the MC moves summed over systems and components
===============================================================================


Translation                          29.859818 [s]
    Ewald                            10.519324 [s]
    ExternalField-Molecule            0.016566 [s]
    Framework-Molecule                0.025335 [s]
    Molecule-Molecule                18.238560 [s]
    Overhead                          1.060033 [s]

Rotation                             29.912653 [s]
    Ewald                            10.536225 [s]
    ExternalField-Molecule            0.015914 [s]
    Framework-Molecule                0.016206 [s]
    Molecule-Molecule                18.285379 [s]
    Overhead                          1.058929 [s]

Reinsertion (CBMC)                  128.708752 [s]
    Ewald                             9.668829 [s]
    NonEwald                        118.418621 [s]
    Overhead                          0.621302 [s]

Gibbs volume                         60.039034 [s]
    Ewald                            12.383224 [s]
    NonEwald                         45.140678 [s]
    Tail                              2.254355 [s]
    Overhead                          0.260777 [s]

Gibbs swap (CBMC)                   336.401007 [s]
    Ewald                            30.849463 [s]
    NonEwald                        302.109733 [s]
    Tail                              2.521940 [s]
    Overhead                          0.919871 [s]

Property sampling:                    0.643662 [s]
Energy/pressure sampling:            11.281774 [s]

Production simulation time:         597.970857 [s]
                All summed:         596.846700 [s]
                  Overhead:           1.124157 [s]


Initalization simulation time:      191.348724 [s]
Equilibration simulation time:        0.000000 [s]
Production simulation time:         597.970857 [s]
Total simulation time:              789.319581 [s]


Energy averages and statistics:
===============================================================================

Framework-molecule energy:
-------------------------------------------------------------------------------



Framework-molecule energy contributions per energy type:
-------------------------------------------------------------------------------



Inter-molecular energy:
-------------------------------------------------------------------------------

    Inter-molecular energy/kʙ 0-0 [CO2-CO2]:
    ---------------------------------------------------------------------------
        Block[  0] -3.873328e+05
        Block[  1] -4.001750e+05
        Block[  2] -3.939910e+05
        Block[  3] -4.020008e+05
        Block[  4] -3.929332e+05
        -----------------------------------------------------------------------
        Average  -3.952866e+05 +/-  7.330368e+03 [K]



Inter-molecular energy contributions per energy type:
-------------------------------------------------------------------------------

    Van der Waals energy/kʙ 0-0 [CO2-CO2]:
    ---------------------------------------------------------------------------
        Block[  0] -2.787718e+05
        Block[  1] -2.843561e+05
        Block[  2] -2.804364e+05
        Block[  3] -2.863701e+05
        Block[  4] -2.819850e+05
        -----------------------------------------------------------------------
        Average  -2.823839e+05 +/-  3.764432e+03 [K]

    VDW Tail-Correction energy/kʙ 0-0 [CO2-CO2]:
    ---------------------------------------------------------------------------
        Block[  0] -6.705487e+03
        Block[  1] -6.842158e+03
        Block[  2] -6.765972e+03
        Block[  3] -6.878884e+03
        Block[  4] -6.797614e+03
        -----------------------------------------------------------------------
        Average  -6.798023e+03 +/-  8.345711e+01 [K]

    Coulomb Real energy/kʙ 0-0 [CO2-CO2]:
    ---------------------------------------------------------------------------
        Block[  0] -9.321006e+04
        Block[  1] -1.000148e+05
        Block[  2] -9.809577e+04
        Block[  3] -1.001876e+05
        Block[  4] -9.551214e+04
        -----------------------------------------------------------------------
        Average  -9.740407e+04 +/-  3.735315e+03 [K]

    Coulomb Fourier energy/kʙ 0-0 [CO2-CO2]:
    ---------------------------------------------------------------------------
        Block[  0] -8.645418e+03
        Block[  1] -8.961990e+03
        Block[  2] -8.692852e+03
        Block[  3] -8.564259e+03
        Block[  4] -8.638368e+03
        -----------------------------------------------------------------------
        Average  -8.700578e+03 +/-  1.902032e+02 [K]


Total energy/kʙ
-------------------------------------------------------------------------------
    Block[  0] -3.873328e+05
    Block[  1] -4.001750e+05
    Block[  2] -3.939910e+05
    Block[  3] -4.020008e+05
    Block[  4] -3.929332e+05
    ---------------------------------------------------------------------------
    Average  -3.952866e+05 +/-  7.330368e+03 [K]

Pressure averages and statistics:
===============================================================================

Average pressure tensor: 
-------------------------------------------------------------------------------
 2.8218e+01  2.0100e+01  1.4729e+01 +/- 9.5432e+01 7.1886e+01 6.9067e+01 [bar]
 2.0100e+01 -2.7296e+00 -1.9677e+00 +/- 7.1886e+01 8.3110e+01 3.5005e+01 [bar]
 1.4729e+01 -1.9677e+00 -7.6926e+00 +/- 6.9067e+01 3.5005e+01 1.1116e+02 [bar]

    Block[  0]  4.771909e+07
    Block[  1]  4.891606e+07
    Block[  2]  4.822666e+07
    Block[  3]  4.888839e+07
    Block[  4]  4.909679e+07
    ---------------------------------------------------------------------------
    Ideal gas pressure   4.856940e+07 +/-  4.328141e-02 [Pa]
                         4.856940e+02 +/-  7.187051e+00 [bar]


    Block[  0] -5.109482e+07
    Block[  1] -4.923256e+07
    Block[  2] -5.083246e+07
    Block[  3] -4.467097e+07
    Block[  4] -4.405021e+07
    ---------------------------------------------------------------------------
    Excess pressure  -4.797620e+07 +/-  4.200866e+06 [Pa]
                     -4.797620e+02 +/-  4.200866e+01 [bar]


    Block[  0] -3.375735e+06
    Block[  1] -3.164996e+05
    Block[  2] -2.605798e+06
    Block[  3]  4.217423e+06
    Block[  4]  5.046579e+06
    ---------------------------------------------------------------------------
    Pressure average   5.931938e+05 +/-  4.799397e+06 [Pa]
                       5.931938e+00 +/-  4.799397e+01 [bar]


Enthalpy of adsorption
===============================================================================

Component 0 [CO2]
-------------------------------------------------------------------------------
    Block[  0] -3.161877e+03
    Block[  1] -3.044471e+03
    Block[  2] -2.577622e+03
    Block[  3] -2.113903e+03
    Block[  4] -2.507404e+03
    ---------------------------------------------------------------------------
    Enthalpy of adsorption: -2.681056e+03 +/-  5.288172e+02 [K]
                            -2.229154e+01 +/-  4.396832e+00 [kJ/mol]
    Warning: need to subtract the ideal-gas energy.


Densities
===============================================================================

Component 0 (CO2)
    Block[  0] 240.465
    Block[  1] 238.78
    Block[  2] 239.6725
    Block[  3] 240.32750000000001
    Block[  4] 236.6641666666667
    -----------------------------------------------------------------------
    Density average   2.391818e+02 +/-  1.933254e+00 [molecules]
    Density average   1.529506e-02 +/-  2.263285e-04 [molec/A^3]
    Density average   1.117483e+03 +/-  1.653595e+01 [kg.m⁻³]

