Compiler and run-time data
===============================================================================
RASPA 3.0.4

Random seed: 33362022

Compiled as a 64-bits application
Compiler: gcc Ubuntu Clang 18.1.3 (1ubuntu1)
Compile Date = Mar 15 2025, Compile Time = 19:39:45

2025-06-03 11:00:44.299523
Simulation started on Tue, Jun 03
The start time was 11:00:00

Hostname:    c108
OS type:     Linux on x86_64
OS release:  6.8.0-58-generic
OS version:  #60-Ubuntu SMP PREEMPT_DYNAMIC Fri Mar 14 18:29:48 UTC 2025


Mutual consistent basic set of units:
===============================================================================

Unit of temperature: 1 [K]
Unit of length:      1e-10 [m]
Unit of time:        1e-12 [s]
Unit of mass:        1.6605402e-27 [kg]
Unit of charge:      1.60217733e-19 [C/particle]


Boltzmann constant (internal units):          0.8314464919307584 [-]
represents conversion from energy (internal units) to temperature (in Kelvin)

Derived units and their conversion factors:
===============================================================================

Unit of energy:                           1.6605402000000002e-23 [J]
Unit of energy:                           10.000008872307538 [J.mol⁻¹]
Unit of velocity:                         100 [m.s⁻¹]
Unit of force:                            1.6605402000000002e-13 [N]
Unit of diffusion:                        1.0000000000000002e-08 [m².s⁻¹]
Unit of acceleration:                     1.0000000000000002e-08 [m².s⁻¹]
Unit of torque:                           1.6605402000000002e-23 [N.m]
Unit of pressure:                         16605402 [Pa]
Unit of volume:                           1e-30 [m³]
Unit of density:                          1660.5402 [kg.m⁻³]
Unit of dynamic viscosity:                1.6605401999999997e-05 [N.s.m⁻²]
Unit of enthalpy:                         1.6605402000000002e-23 [J]
Unit of polarizability:                   1.5458657349975198e-35 [-]
Unit of Coulomb potential:                167101.08000665612 [K]
Unit of dielectric constant:              1.5458657349975193e-05 [s².C².kg⁻¹.m⁻³]
Unit of dipole moment:                    1.60217733e-29 [C.m]
Unit of Debye:                            4.803206799099162 [C.m]
Unit of electric potential:               0.00010364272224473431 [V]
Unit of electric field:                   1036427.222447343 [V.m⁻¹]
Unit of isothermal compressibility:       6.02213665167516e-08 [Pa⁻¹]
Unit of heat capacity:                    10.000008872307538 [J.mol⁻¹.K⁻¹]
Unit of volumetric expansion coefficient: 1 [K⁻¹]


Internal conversion factors:
===============================================================================

Energy (internal units) to Kelvin:      1.202724284692786 [-]
Kelvin to energy (internal units):      0.8314457542157567 [-]


System definitions
===============================================================================

Temperature:          280 [K]
Beta:                 0.004295440062697377 [-]
Pressure:             0 [Pa]
Helium void fraction: 1 [-]

Box:      30.00000   0.00000   0.00000
           0.00000  30.00000   0.00000
           0.00000   0.00000  30.00000
Lengths:  30.00000  30.00000  30.00000
Angles:   90.00000  90.00000  90.00000
Rectangular boundary conditions



Property measurement settings
===============================================================================




Pseudo-atoms
===============================================================================

  0 - C_co2    framework-atom: false
  1 - O_co2    framework-atom: false

  0 - C_co2    mass: 12.00000, charge:  0.70000
  1 - O_co2    mass: 15.99940, charge: -0.35000

  0 - C_co2    polarizability:  0.00000
  1 - O_co2    polarizability:  0.00000

  0 - J. J. Potoff et al., AIChE J. 2001, 47, 1676–1682.
  1 - J. J. Potoff et al., AIChE J. 2001, 47, 1676–1682.

Force field status
===============================================================================

Cutoff Framework-Molecule VDW:  12.00000 [Å]
Cutoff Molecule-Molecule VDW:   12.00000 [Å]
Cutoff Coulomb:                 12.00000 [Å]

Overlap-criteria VDW:           1.000000e+05 [K]

C_co2    - C_co2    Lennard-Jones p₀/kʙ:  27.00000 [K], p₁:  2.80000 [Å]
                                  shift:   0.00000 [K], tailcorrections: true
C_co2    - O_co2    Lennard-Jones p₀/kʙ:  46.18441 [K], p₁:  2.92500 [Å]
                                  shift:   0.00000 [K], tailcorrections: true
O_co2    - O_co2    Lennard-Jones p₀/kʙ:  79.00000 [K], p₁:  3.05000 [Å]
                                  shift:   0.00000 [K], tailcorrections: true

Ewald precision: 1e-06
Ewald alpha: 0.26505830360350674
Ewald k-vectors: 8 8 8


Component definitions
===============================================================================

Component 0 [CO2]

    Type: Adsorbate

    Critical temperature:  304.1282 [K]
    Critical pressure:     7377300 [Pa]
    Acentric factor:       0.22394 [-]

    Mol-fraction:                 1 [-]
    Swappable:                   true

    Mass:                         43.9988 [-]
    Fugacity coefficient:         -nan [-]
    Bulk fluid density:           0 [-]
    Compressibility:              1 [-]
    Excess molecules:             0 [-]

    Number Of Atoms:    3
    CBMC starting bead: 0
      0: O_co2  position  0.00000 -0.00000  1.16000, charge -0.35000
      1: C_co2  position  0.00000 -0.00000  0.00000, charge  0.70000
      2: O_co2  position  0.00000 -0.00000 -1.16000, charge -0.35000
    Diagonalized inertia-vector:      43.05758528 43.05758528 0.00000000
    Translational degrees of freedom: 3
    Rotational degrees of freedom:    2
    Shape of the molecule is: 'Linear'
    Net-charge:        0.00000000 [e]

    Move probabilities:
    Translation:                   0.199203 [-]
    Random translation:            0.000000 [-]
    Rotation:                      0.199203 [-]
    Random rotation:               0.000000 [-]
    Volume change:                 0.000000 [-]
    Reinsertion (CBMC):            0.199203 [-]
    Identity change (CBMC):        0.000000 [-]
    Swap:                          0.000000 [-]
    Swap (CBMC):                   0.000000 [-]
    Swap (CFCMC):                  0.000000 [-]
    Swap (CB/CFCMC):               0.000000 [-]
    Gibbs volume:                  0.003984 [-]
    Gibbs swap (CBMC):             0.398406 [-]
    Gibbs swap (CFCMC):            0.000000 [-]
    Widom:                         0.000000 [-]
    Widom (CFCMC):                 0.000000 [-]
    Widom (CB/CFCMC):              0.000000 [-]
    Parallel tempering:            0.000000 [-]
    Hybrid MC:                     0.000000 [-]

    number of blocking-pockets: 0

    number of bonds: 0





Number of pseudo-atoms
===============================================================================

Component   0 (CO2)
-------------------------------------------------------------------------------
    index   0 (C_co2): 40 atoms
    index   1 (O_co2): 80 atoms

Total number of pseudo-atoms:
-------------------------------------------------------------------------------
    index   0 (C_co2): 40 atoms
    index   1 (O_co2): 80 atoms




Energy status Recomputed from scratch
===============================================================================

Total potential energy/kʙ       -5.411899e+03 [K]
    external field VDW/kʙ        0.000000e+00 [K]
    external field Real/kʙ       0.000000e+00 [K]
    framework-molecule VDW/kʙ    0.000000e+00 [K]
    framework-molecule Real/kʙ   0.000000e+00 [K]
    molecule-molecule VDW/kʙ    -5.173937e+03 [K]
    molecule-molecule Real/kʙ   -1.653036e+02 [K]
    Van der Waals (Tail)/kʙ     -1.100506e+02 [K]
    Ewald Fourier/kʙ             2.389618e+03 [K]
    Ewald self/kʙ               -7.346713e+05 [K]
    Ewald exclusion/kʙ           7.323191e+05 [K]
    intra VDW/kʙ                 0.000000e+00 [K]
    intra Coulombic/kʙ           0.000000e+00 [K]
    polarization/kʙ              0.000000e+00 [K]
    dU/dlambda VDW/kʙ            0.000000e+00 [K]
    dU/dlambda Real/kʙ           0.000000e+00 [K]
    dU/dlambda Ewald/kʙ          0.000000e+00 [K]





Initialization: Current cycle: 0 out of 2000
===============================================================================

Box:      30.00000   0.00000   0.00000
           0.00000  30.00000   0.00000
           0.00000   0.00000  30.00000
Lengths:  30.00000  30.00000  30.00000
Angles:   90.00000  90.00000  90.00000
Rectangular boundary conditions

net charge:   0.00000000

component   0 (CO2) lambda:  0 occupancy:  1 (1.000000)
    net charge:   0.00000000 [e]

Amount of molecules per component :
-------------------------------------------------------------------------------
Component 0 (CO2)
    molecules:         5.300000e+01 molecules
    number density:    1.962963e-03 molec/A^3
    density:           1.434174e+02 kg/m^3

Total potential energy/kʙ       -1.554464e+04 [K]
-------------------------------------------------------------------------------
    external field VDW/kʙ        0.000000e+00 [K]
    external field Real/kʙ       0.000000e+00 [K]
    framework-molecule VDW/kʙ    0.000000e+00 [K]
    framework-molecule Real/kʙ   0.000000e+00 [K]
    molecule-molecule VDW/kʙ    -1.215009e+04 [K]
    molecule-molecule Real/kʙ   -3.241332e+03 [K]
    Van der Waals (Tail)/kʙ     -1.932076e+02 [K]
    Ewald Fourier/kʙ             3.156691e+03 [K]
    Ewald self/kʙ               -9.734395e+05 [K]
    Ewald exclusion/kʙ           9.703228e+05 [K]
    intra VDW/kʙ                 0.000000e+00 [K]
    intra Coulombic/kʙ           0.000000e+00 [K]
    polarization/kʙ              0.000000e+00 [K]
    dU/dlambda VDW/kʙ            0.000000e+00 [K]
    dU/dlambda Real/kʙ           0.000000e+00 [K]
    dU/dlambda Ewald/kʙ          0.000000e+00 [K]


Initialization: Current cycle: 100 out of 2000
===============================================================================

Box:      30.00045   0.00000   0.00000
           0.00000  30.00045   0.00000
           0.00000   0.00000  30.00045
Lengths:  30.00045  30.00045  30.00045
Angles:   90.00000  90.00000  90.00000
Rectangular boundary conditions

net charge:   0.00000000

component   0 (CO2) lambda:  0 occupancy:  1 (1.000000)
    net charge:   0.00000000 [e]

Amount of molecules per component :
-------------------------------------------------------------------------------
Component 0 (CO2)
    molecules:         3.800000e+01 molecules
    number density:    1.407345e-03 molec/A^3
    density:           1.028230e+02 kg/m^3

Total potential energy/kʙ       -8.436031e+03 [K]
-------------------------------------------------------------------------------
    external field VDW/kʙ        0.000000e+00 [K]
    external field Real/kʙ       0.000000e+00 [K]
    framework-molecule VDW/kʙ    0.000000e+00 [K]
    framework-molecule Real/kʙ   0.000000e+00 [K]
    molecule-molecule VDW/kʙ    -5.686024e+03 [K]
    molecule-molecule Real/kʙ   -2.549749e+03 [K]
    Van der Waals (Tail)/kʙ     -9.931624e+01 [K]
    Ewald Fourier/kʙ             2.133673e+03 [K]
    Ewald self/kʙ               -6.979377e+05 [K]
    Ewald exclusion/kʙ           6.957031e+05 [K]
    intra VDW/kʙ                 0.000000e+00 [K]
    intra Coulombic/kʙ           0.000000e+00 [K]
    polarization/kʙ              0.000000e+00 [K]
    dU/dlambda VDW/kʙ            0.000000e+00 [K]
    dU/dlambda Real/kʙ           0.000000e+00 [K]
    dU/dlambda Ewald/kʙ          0.000000e+00 [K]


Initialization: Current cycle: 200 out of 2000
===============================================================================

Box:      31.09726   0.00000   0.00000
           0.00000  31.09726   0.00000
           0.00000   0.00000  31.09726
Lengths:  31.09726  31.09726  31.09726
Angles:   90.00000  90.00000  90.00000
Rectangular boundary conditions

net charge:   0.00000000

component   0 (CO2) lambda:  0 occupancy:  1 (1.000000)
    net charge:   0.00000000 [e]

Amount of molecules per component :
-------------------------------------------------------------------------------
Component 0 (CO2)
    molecules:         2.200000e+01 molecules
    number density:    7.315710e-04 molec/A^3
    density:           5.344983e+01 kg/m^3

Total potential energy/kʙ       -3.006674e+03 [K]
-------------------------------------------------------------------------------
    external field VDW/kʙ        0.000000e+00 [K]
    external field Real/kʙ       0.000000e+00 [K]
    framework-molecule VDW/kʙ    0.000000e+00 [K]
    framework-molecule Real/kʙ   0.000000e+00 [K]
    molecule-molecule VDW/kʙ    -2.112458e+03 [K]
    molecule-molecule Real/kʙ   -7.984512e+02 [K]
    Van der Waals (Tail)/kʙ     -2.988927e+01 [K]
    Ewald Fourier/kʙ             1.227849e+03 [K]
    Ewald self/kʙ               -4.040692e+05 [K]
    Ewald exclusion/kʙ           4.027755e+05 [K]
    intra VDW/kʙ                 0.000000e+00 [K]
    intra Coulombic/kʙ           0.000000e+00 [K]
    polarization/kʙ              0.000000e+00 [K]
    dU/dlambda VDW/kʙ            0.000000e+00 [K]
    dU/dlambda Real/kʙ           0.000000e+00 [K]
    dU/dlambda Ewald/kʙ          0.000000e+00 [K]


Initialization: Current cycle: 300 out of 2000
===============================================================================

Box:      31.06885   0.00000   0.00000
           0.00000  31.06885   0.00000
           0.00000   0.00000  31.06885
Lengths:  31.06885  31.06885  31.06885
Angles:   90.00000  90.00000  90.00000
Rectangular boundary conditions

net charge:   0.00000000

component   0 (CO2) lambda:  0 occupancy:  1 (1.000000)
    net charge:   0.00000000 [e]

Amount of molecules per component :
-------------------------------------------------------------------------------
Component 0 (CO2)
    molecules:         3.900000e+01 molecules
    number density:    1.300436e-03 molec/A^3
    density:           9.501206e+01 kg/m^3

Total potential energy/kʙ       -6.942230e+03 [K]
-------------------------------------------------------------------------------
    external field VDW/kʙ        0.000000e+00 [K]
    external field Real/kʙ       0.000000e+00 [K]
    framework-molecule VDW/kʙ    0.000000e+00 [K]
    framework-molecule Real/kʙ   0.000000e+00 [K]
    molecule-molecule VDW/kʙ    -4.657948e+03 [K]
    molecule-molecule Real/kʙ   -2.046235e+03 [K]
    Van der Waals (Tail)/kʙ     -9.418673e+01 [K]
    Ewald Fourier/kʙ             2.149560e+03 [K]
    Ewald self/kʙ               -7.163045e+05 [K]
    Ewald exclusion/kʙ           7.140111e+05 [K]
    intra VDW/kʙ                 0.000000e+00 [K]
    intra Coulombic/kʙ           0.000000e+00 [K]
    polarization/kʙ              0.000000e+00 [K]
    dU/dlambda VDW/kʙ            0.000000e+00 [K]
    dU/dlambda Real/kʙ           0.000000e+00 [K]
    dU/dlambda Ewald/kʙ          0.000000e+00 [K]


Initialization: Current cycle: 400 out of 2000
===============================================================================

Box:      32.25266   0.00000   0.00000
           0.00000  32.25266   0.00000
           0.00000   0.00000  32.25266
Lengths:  32.25266  32.25266  32.25266
Angles:   90.00000  90.00000  90.00000
Rectangular boundary conditions

net charge:   0.00000000

component   0 (CO2) lambda:  0 occupancy:  1 (1.000000)
    net charge:   0.00000000 [e]

Amount of molecules per component :
-------------------------------------------------------------------------------
Component 0 (CO2)
    molecules:         4.600000e+01 molecules
    number density:    1.371075e-03 molec/A^3
    density:           1.001731e+02 kg/m^3

Total potential energy/kʙ       -8.876654e+03 [K]
-------------------------------------------------------------------------------
    external field VDW/kʙ        0.000000e+00 [K]
    external field Real/kʙ       0.000000e+00 [K]
    framework-molecule VDW/kʙ    0.000000e+00 [K]
    framework-molecule Real/kʙ   0.000000e+00 [K]
    molecule-molecule VDW/kʙ    -6.937690e+03 [K]
    molecule-molecule Real/kʙ   -1.631039e+03 [K]
    Van der Waals (Tail)/kʙ     -1.171265e+02 [K]
    Ewald Fourier/kʙ             2.514260e+03 [K]
    Ewald self/kʙ               -8.448720e+05 [K]
    Ewald exclusion/kʙ           8.421669e+05 [K]
    intra VDW/kʙ                 0.000000e+00 [K]
    intra Coulombic/kʙ           0.000000e+00 [K]
    polarization/kʙ              0.000000e+00 [K]
    dU/dlambda VDW/kʙ            0.000000e+00 [K]
    dU/dlambda Real/kʙ           0.000000e+00 [K]
    dU/dlambda Ewald/kʙ          0.000000e+00 [K]


Initialization: Current cycle: 500 out of 2000
===============================================================================

Box:      32.72777   0.00000   0.00000
           0.00000  32.72777   0.00000
           0.00000   0.00000  32.72777
Lengths:  32.72777  32.72777  32.72777
Angles:   90.00000  90.00000  90.00000
Rectangular boundary conditions

net charge:   0.00000000

component   0 (CO2) lambda:  0 occupancy:  1 (1.000000)
    net charge:   0.00000000 [e]

Amount of molecules per component :
-------------------------------------------------------------------------------
Component 0 (CO2)
    molecules:         3.300000e+01 molecules
    number density:    9.413797e-04 molec/A^3
    density:           6.877882e+01 kg/m^3

Total potential energy/kʙ       -4.724369e+03 [K]
-------------------------------------------------------------------------------
    external field VDW/kʙ        0.000000e+00 [K]
    external field Real/kʙ       0.000000e+00 [K]
    framework-molecule VDW/kʙ    0.000000e+00 [K]
    framework-molecule Real/kʙ   0.000000e+00 [K]
    molecule-molecule VDW/kʙ    -3.569426e+03 [K]
    molecule-molecule Real/kʙ   -1.057646e+03 [K]
    Van der Waals (Tail)/kʙ     -5.769192e+01 [K]
    Ewald Fourier/kʙ             1.900981e+03 [K]
    Ewald self/kʙ               -6.061038e+05 [K]
    Ewald exclusion/kʙ           6.041632e+05 [K]
    intra VDW/kʙ                 0.000000e+00 [K]
    intra Coulombic/kʙ           0.000000e+00 [K]
    polarization/kʙ              0.000000e+00 [K]
    dU/dlambda VDW/kʙ            0.000000e+00 [K]
    dU/dlambda Real/kʙ           0.000000e+00 [K]
    dU/dlambda Ewald/kʙ          0.000000e+00 [K]


Initialization: Current cycle: 600 out of 2000
===============================================================================

Box:      32.69702   0.00000   0.00000
           0.00000  32.69702   0.00000
           0.00000   0.00000  32.69702
Lengths:  32.69702  32.69702  32.69702
Angles:   90.00000  90.00000  90.00000
Rectangular boundary conditions

net charge:   0.00000000

component   0 (CO2) lambda:  0 occupancy:  1 (1.000000)
    net charge:   0.00000000 [e]

Amount of molecules per component :
-------------------------------------------------------------------------------
Component 0 (CO2)
    molecules:         3.000000e+01 molecules
    number density:    8.582165e-04 molec/A^3
    density:           6.270276e+01 kg/m^3

Total potential energy/kʙ       -3.581613e+03 [K]
-------------------------------------------------------------------------------
    external field VDW/kʙ        0.000000e+00 [K]
    external field Real/kʙ       0.000000e+00 [K]
    framework-molecule VDW/kʙ    0.000000e+00 [K]
    framework-molecule Real/kʙ   0.000000e+00 [K]
    molecule-molecule VDW/kʙ    -2.317018e+03 [K]
    molecule-molecule Real/kʙ   -1.138770e+03 [K]
    Van der Waals (Tail)/kʙ     -4.781392e+01 [K]
    Ewald Fourier/kʙ             1.686158e+03 [K]
    Ewald self/kʙ               -5.510035e+05 [K]
    Ewald exclusion/kʙ           5.492393e+05 [K]
    intra VDW/kʙ                 0.000000e+00 [K]
    intra Coulombic/kʙ           0.000000e+00 [K]
    polarization/kʙ              0.000000e+00 [K]
    dU/dlambda VDW/kʙ            0.000000e+00 [K]
    dU/dlambda Real/kʙ           0.000000e+00 [K]
    dU/dlambda Ewald/kʙ          0.000000e+00 [K]


Initialization: Current cycle: 700 out of 2000
===============================================================================

Box:      33.12816   0.00000   0.00000
           0.00000  33.12816   0.00000
           0.00000   0.00000  33.12816
Lengths:  33.12816  33.12816  33.12816
Angles:   90.00000  90.00000  90.00000
Rectangular boundary conditions

net charge:   0.00000000

component   0 (CO2) lambda:  0 occupancy:  1 (1.000000)
    net charge:   0.00000000 [e]

Amount of molecules per component :
-------------------------------------------------------------------------------
Component 0 (CO2)
    molecules:         4.600000e+01 molecules
    number density:    1.265220e-03 molec/A^3
    density:           9.243912e+01 kg/m^3

Total potential energy/kʙ       -7.983609e+03 [K]
-------------------------------------------------------------------------------
    external field VDW/kʙ        0.000000e+00 [K]
    external field Real/kʙ       0.000000e+00 [K]
    framework-molecule VDW/kʙ    0.000000e+00 [K]
    framework-molecule Real/kʙ   0.000000e+00 [K]
    molecule-molecule VDW/kʙ    -4.327442e+03 [K]
    molecule-molecule Real/kʙ   -3.216024e+03 [K]
    Van der Waals (Tail)/kʙ     -1.080837e+02 [K]
    Ewald Fourier/kʙ             2.372999e+03 [K]
    Ewald self/kʙ               -8.448720e+05 [K]
    Ewald exclusion/kʙ           8.421669e+05 [K]
    intra VDW/kʙ                 0.000000e+00 [K]
    intra Coulombic/kʙ           0.000000e+00 [K]
    polarization/kʙ              0.000000e+00 [K]
    dU/dlambda VDW/kʙ            0.000000e+00 [K]
    dU/dlambda Real/kʙ           0.000000e+00 [K]
    dU/dlambda Ewald/kʙ          0.000000e+00 [K]


Initialization: Current cycle: 800 out of 2000
===============================================================================

Box:      33.37178   0.00000   0.00000
           0.00000  33.37178   0.00000
           0.00000   0.00000  33.37178
Lengths:  33.37178  33.37178  33.37178
Angles:   90.00000  90.00000  90.00000
Rectangular boundary conditions

net charge:   0.00000000

component   0 (CO2) lambda:  0 occupancy:  1 (1.000000)
    net charge:   0.00000000 [e]

Amount of molecules per component :
-------------------------------------------------------------------------------
Component 0 (CO2)
    molecules:         3.600000e+01 molecules
    number density:    9.686446e-04 molec/A^3
    density:           7.077083e+01 kg/m^3

Total potential energy/kʙ       -2.244270e+03 [K]
-------------------------------------------------------------------------------
    external field VDW/kʙ        0.000000e+00 [K]
    external field Real/kʙ       0.000000e+00 [K]
    framework-molecule VDW/kʙ    0.000000e+00 [K]
    framework-molecule Real/kʙ   0.000000e+00 [K]
    molecule-molecule VDW/kʙ    -2.063266e+03 [K]
    molecule-molecule Real/kʙ   -6.739200e+01 [K]
    Van der Waals (Tail)/kʙ     -6.475945e+01 [K]
    Ewald Fourier/kʙ             2.068151e+03 [K]
    Ewald self/kʙ               -6.612042e+05 [K]
    Ewald exclusion/kʙ           6.590872e+05 [K]
    intra VDW/kʙ                 0.000000e+00 [K]
    intra Coulombic/kʙ           0.000000e+00 [K]
    polarization/kʙ              0.000000e+00 [K]
    dU/dlambda VDW/kʙ            0.000000e+00 [K]
    dU/dlambda Real/kʙ           0.000000e+00 [K]
    dU/dlambda Ewald/kʙ          0.000000e+00 [K]


Initialization: Current cycle: 900 out of 2000
===============================================================================

Box:      32.14668   0.00000   0.00000
           0.00000  32.14668   0.00000
           0.00000   0.00000  32.14668
Lengths:  32.14668  32.14668  32.14668
Angles:   90.00000  90.00000  90.00000
Rectangular boundary conditions

net charge:   0.00000000

component   0 (CO2) lambda:  0 occupancy:  1 (1.000000)
    net charge:   0.00000000 [e]

Amount of molecules per component :
-------------------------------------------------------------------------------
Component 0 (CO2)
    molecules:         3.800000e+01 molecules
    number density:    1.143866e-03 molec/A^3
    density:           8.357280e+01 kg/m^3

Total potential energy/kʙ       -5.301593e+03 [K]
-------------------------------------------------------------------------------
    external field VDW/kʙ        0.000000e+00 [K]
    external field Real/kʙ       0.000000e+00 [K]
    framework-molecule VDW/kʙ    0.000000e+00 [K]
    framework-molecule Real/kʙ   0.000000e+00 [K]
    molecule-molecule VDW/kʙ    -3.855590e+03 [K]
    molecule-molecule Real/kʙ   -1.213874e+03 [K]
    Van der Waals (Tail)/kʙ     -8.072256e+01 [K]
    Ewald Fourier/kʙ             2.083208e+03 [K]
    Ewald self/kʙ               -6.979377e+05 [K]
    Ewald exclusion/kʙ           6.957031e+05 [K]
    intra VDW/kʙ                 0.000000e+00 [K]
    intra Coulombic/kʙ           0.000000e+00 [K]
    polarization/kʙ              0.000000e+00 [K]
    dU/dlambda VDW/kʙ            0.000000e+00 [K]
    dU/dlambda Real/kʙ           0.000000e+00 [K]
    dU/dlambda Ewald/kʙ          0.000000e+00 [K]


Initialization: Current cycle: 1000 out of 2000
===============================================================================

Box:      31.81475   0.00000   0.00000
           0.00000  31.81475   0.00000
           0.00000   0.00000  31.81475
Lengths:  31.81475  31.81475  31.81475
Angles:   90.00000  90.00000  90.00000
Rectangular boundary conditions

net charge:   0.00000000

component   0 (CO2) lambda:  0 occupancy:  1 (1.000000)
    net charge:   0.00000000 [e]

Amount of molecules per component :
-------------------------------------------------------------------------------
Component 0 (CO2)
    molecules:         4.100000e+01 molecules
    number density:    1.273204e-03 molec/A^3
    density:           9.302250e+01 kg/m^3

Total potential energy/kʙ       -6.706736e+03 [K]
-------------------------------------------------------------------------------
    external field VDW/kʙ        0.000000e+00 [K]
    external field Real/kʙ       0.000000e+00 [K]
    framework-molecule VDW/kʙ    0.000000e+00 [K]
    framework-molecule Real/kʙ   0.000000e+00 [K]
    molecule-molecule VDW/kʙ    -4.920963e+03 [K]
    molecule-molecule Real/kʙ   -1.635513e+03 [K]
    Van der Waals (Tail)/kʙ     -9.694339e+01 [K]
    Ewald Fourier/kʙ             2.357715e+03 [K]
    Ewald self/kʙ               -7.530381e+05 [K]
    Ewald exclusion/kʙ           7.506270e+05 [K]
    intra VDW/kʙ                 0.000000e+00 [K]
    intra Coulombic/kʙ           0.000000e+00 [K]
    polarization/kʙ              0.000000e+00 [K]
    dU/dlambda VDW/kʙ            0.000000e+00 [K]
    dU/dlambda Real/kʙ           0.000000e+00 [K]
    dU/dlambda Ewald/kʙ          0.000000e+00 [K]


Initialization: Current cycle: 1100 out of 2000
===============================================================================

Box:      31.99844   0.00000   0.00000
           0.00000  31.99844   0.00000
           0.00000   0.00000  31.99844
Lengths:  31.99844  31.99844  31.99844
Angles:   90.00000  90.00000  90.00000
Rectangular boundary conditions

net charge:   0.00000000

component   0 (CO2) lambda:  0 occupancy:  1 (1.000000)
    net charge:   0.00000000 [e]

Amount of molecules per component :
-------------------------------------------------------------------------------
Component 0 (CO2)
    molecules:         4.500000e+01 molecules
    number density:    1.373492e-03 molec/A^3
    density:           1.003497e+02 kg/m^3

Total potential energy/kʙ       -5.646446e+03 [K]
-------------------------------------------------------------------------------
    external field VDW/kʙ        0.000000e+00 [K]
    external field Real/kʙ       0.000000e+00 [K]
    framework-molecule VDW/kʙ    0.000000e+00 [K]
    framework-molecule Real/kʙ   0.000000e+00 [K]
    molecule-molecule VDW/kʙ    -3.480385e+03 [K]
    molecule-molecule Real/kʙ   -1.792514e+03 [K]
    Van der Waals (Tail)/kʙ     -1.147823e+02 [K]
    Ewald Fourier/kʙ             2.387489e+03 [K]
    Ewald self/kʙ               -8.265052e+05 [K]
    Ewald exclusion/kʙ           8.238589e+05 [K]
    intra VDW/kʙ                 0.000000e+00 [K]
    intra Coulombic/kʙ           0.000000e+00 [K]
    polarization/kʙ              0.000000e+00 [K]
    dU/dlambda VDW/kʙ            0.000000e+00 [K]
    dU/dlambda Real/kʙ           0.000000e+00 [K]
    dU/dlambda Ewald/kʙ          0.000000e+00 [K]


Initialization: Current cycle: 1200 out of 2000
===============================================================================

Box:      32.16163   0.00000   0.00000
           0.00000  32.16163   0.00000
           0.00000   0.00000  32.16163
Lengths:  32.16163  32.16163  32.16163
Angles:   90.00000  90.00000  90.00000
Rectangular boundary conditions

net charge:   0.00000000

component   0 (CO2) lambda:  0 occupancy:  1 (1.000000)
    net charge:   0.00000000 [e]

Amount of molecules per component :
-------------------------------------------------------------------------------
Component 0 (CO2)
    molecules:         3.500000e+01 molecules
    number density:    1.052093e-03 molec/A^3
    density:           7.686770e+01 kg/m^3

Total potential energy/kʙ       -6.386289e+03 [K]
-------------------------------------------------------------------------------
    external field VDW/kʙ        0.000000e+00 [K]
    external field Real/kʙ       0.000000e+00 [K]
    framework-molecule VDW/kʙ    0.000000e+00 [K]
    framework-molecule Real/kʙ   0.000000e+00 [K]
    molecule-molecule VDW/kʙ    -4.513383e+03 [K]
    molecule-molecule Real/kʙ   -1.758589e+03 [K]
    Van der Waals (Tail)/kʙ     -6.838460e+01 [K]
    Ewald Fourier/kʙ             2.012265e+03 [K]
    Ewald self/kʙ               -6.428374e+05 [K]
    Ewald exclusion/kʙ           6.407792e+05 [K]
    intra VDW/kʙ                 0.000000e+00 [K]
    intra Coulombic/kʙ           0.000000e+00 [K]
    polarization/kʙ              0.000000e+00 [K]
    dU/dlambda VDW/kʙ            0.000000e+00 [K]
    dU/dlambda Real/kʙ           0.000000e+00 [K]
    dU/dlambda Ewald/kʙ          0.000000e+00 [K]


Initialization: Current cycle: 1300 out of 2000
===============================================================================

Box:      31.72264   0.00000   0.00000
           0.00000  31.72264   0.00000
           0.00000   0.00000  31.72264
Lengths:  31.72264  31.72264  31.72264
Angles:   90.00000  90.00000  90.00000
Rectangular boundary conditions

net charge:   0.00000000

component   0 (CO2) lambda:  0 occupancy:  1 (1.000000)
    net charge:   0.00000000 [e]

Amount of molecules per component :
-------------------------------------------------------------------------------
Component 0 (CO2)
    molecules:         3.400000e+01 molecules
    number density:    1.065052e-03 molec/A^3
    density:           7.781454e+01 kg/m^3

Total potential energy/kʙ       -4.683737e+03 [K]
-------------------------------------------------------------------------------
    external field VDW/kʙ        0.000000e+00 [K]
    external field Real/kʙ       0.000000e+00 [K]
    framework-molecule VDW/kʙ    0.000000e+00 [K]
    framework-molecule Real/kʙ   0.000000e+00 [K]
    molecule-molecule VDW/kʙ    -2.999577e+03 [K]
    molecule-molecule Real/kʙ   -1.349335e+03 [K]
    Van der Waals (Tail)/kʙ     -6.724903e+01 [K]
    Ewald Fourier/kʙ             1.731816e+03 [K]
    Ewald self/kʙ               -6.244706e+05 [K]
    Ewald exclusion/kʙ           6.224712e+05 [K]
    intra VDW/kʙ                 0.000000e+00 [K]
    intra Coulombic/kʙ           0.000000e+00 [K]
    polarization/kʙ              0.000000e+00 [K]
    dU/dlambda VDW/kʙ            0.000000e+00 [K]
    dU/dlambda Real/kʙ           0.000000e+00 [K]
    dU/dlambda Ewald/kʙ          0.000000e+00 [K]


Initialization: Current cycle: 1400 out of 2000
===============================================================================

Box:      32.36192   0.00000   0.00000
           0.00000  32.36192   0.00000
           0.00000   0.00000  32.36192
Lengths:  32.36192  32.36192  32.36192
Angles:   90.00000  90.00000  90.00000
Rectangular boundary conditions

net charge:   0.00000000

component   0 (CO2) lambda:  0 occupancy:  1 (1.000000)
    net charge:   0.00000000 [e]

Amount of molecules per component :
-------------------------------------------------------------------------------
Component 0 (CO2)
    molecules:         3.400000e+01 molecules
    number density:    1.003174e-03 molec/A^3
    density:           7.329360e+01 kg/m^3

Total potential energy/kʙ       -4.581086e+03 [K]
-------------------------------------------------------------------------------
    external field VDW/kʙ        0.000000e+00 [K]
    external field Real/kʙ       0.000000e+00 [K]
    framework-molecule VDW/kʙ    0.000000e+00 [K]
    framework-molecule Real/kʙ   0.000000e+00 [K]
    molecule-molecule VDW/kʙ    -3.506914e+03 [K]
    molecule-molecule Real/kʙ   -7.828069e+02 [K]
    Van der Waals (Tail)/kʙ     -6.334194e+01 [K]
    Ewald Fourier/kʙ             1.771369e+03 [K]
    Ewald self/kʙ               -6.244706e+05 [K]
    Ewald exclusion/kʙ           6.224712e+05 [K]
    intra VDW/kʙ                 0.000000e+00 [K]
    intra Coulombic/kʙ           0.000000e+00 [K]
    polarization/kʙ              0.000000e+00 [K]
    dU/dlambda VDW/kʙ            0.000000e+00 [K]
    dU/dlambda Real/kʙ           0.000000e+00 [K]
    dU/dlambda Ewald/kʙ          0.000000e+00 [K]


Initialization: Current cycle: 1500 out of 2000
===============================================================================

Box:      32.57232   0.00000   0.00000
           0.00000  32.57232   0.00000
           0.00000   0.00000  32.57232
Lengths:  32.57232  32.57232  32.57232
Angles:   90.00000  90.00000  90.00000
Rectangular boundary conditions

net charge:   0.00000000

component   0 (CO2) lambda:  0 occupancy:  1 (1.000000)
    net charge:   0.00000000 [e]

Amount of molecules per component :
-------------------------------------------------------------------------------
Component 0 (CO2)
    molecules:         2.500000e+01 molecules
    number density:    7.234259e-04 molec/A^3
    density:           5.285473e+01 kg/m^3

Total potential energy/kʙ       -2.917852e+03 [K]
-------------------------------------------------------------------------------
    external field VDW/kʙ        0.000000e+00 [K]
    external field Real/kʙ       0.000000e+00 [K]
    framework-molecule VDW/kʙ    0.000000e+00 [K]
    framework-molecule Real/kʙ   0.000000e+00 [K]
    molecule-molecule VDW/kʙ    -1.635871e+03 [K]
    molecule-molecule Real/kʙ   -1.169056e+03 [K]
    Van der Waals (Tail)/kʙ     -3.358693e+01 [K]
    Ewald Fourier/kʙ             1.390803e+03 [K]
    Ewald self/kʙ               -4.591696e+05 [K]
    Ewald exclusion/kʙ           4.576994e+05 [K]
    intra VDW/kʙ                 0.000000e+00 [K]
    intra Coulombic/kʙ           0.000000e+00 [K]
    polarization/kʙ              0.000000e+00 [K]
    dU/dlambda VDW/kʙ            0.000000e+00 [K]
    dU/dlambda Real/kʙ           0.000000e+00 [K]
    dU/dlambda Ewald/kʙ          0.000000e+00 [K]


Initialization: Current cycle: 1600 out of 2000
===============================================================================

Box:      32.55314   0.00000   0.00000
           0.00000  32.55314   0.00000
           0.00000   0.00000  32.55314
Lengths:  32.55314  32.55314  32.55314
Angles:   90.00000  90.00000  90.00000
Rectangular boundary conditions

net charge:   0.00000000

component   0 (CO2) lambda:  0 occupancy:  1 (1.000000)
    net charge:   0.00000000 [e]

Amount of molecules per component :
-------------------------------------------------------------------------------
Component 0 (CO2)
    molecules:         4.200000e+01 molecules
    number density:    1.217505e-03 molec/A^3
    density:           8.895299e+01 kg/m^3

Total potential energy/kʙ       -9.998445e+03 [K]
-------------------------------------------------------------------------------
    external field VDW/kʙ        0.000000e+00 [K]
    external field Real/kʙ       0.000000e+00 [K]
    framework-molecule VDW/kʙ    0.000000e+00 [K]
    framework-molecule Real/kʙ   0.000000e+00 [K]
    molecule-molecule VDW/kʙ    -7.457214e+03 [K]
    molecule-molecule Real/kʙ   -2.121991e+03 [K]
    Van der Waals (Tail)/kʙ     -9.496340e+01 [K]
    Ewald Fourier/kʙ             2.145561e+03 [K]
    Ewald self/kʙ               -7.714048e+05 [K]
    Ewald exclusion/kʙ           7.689350e+05 [K]
    intra VDW/kʙ                 0.000000e+00 [K]
    intra Coulombic/kʙ           0.000000e+00 [K]
    polarization/kʙ              0.000000e+00 [K]
    dU/dlambda VDW/kʙ            0.000000e+00 [K]
    dU/dlambda Real/kʙ           0.000000e+00 [K]
    dU/dlambda Ewald/kʙ          0.000000e+00 [K]


Initialization: Current cycle: 1700 out of 2000
===============================================================================

Box:      33.29999   0.00000   0.00000
           0.00000  33.29999   0.00000
           0.00000   0.00000  33.29999
Lengths:  33.29999  33.29999  33.29999
Angles:   90.00000  90.00000  90.00000
Rectangular boundary conditions

net charge:   0.00000000

component   0 (CO2) lambda:  0 occupancy:  1 (1.000000)
    net charge:   0.00000000 [e]

Amount of molecules per component :
-------------------------------------------------------------------------------
Component 0 (CO2)
    molecules:         4.800000e+01 molecules
    number density:    1.299897e-03 molec/A^3
    density:           9.497270e+01 kg/m^3

Total potential energy/kʙ       -9.612024e+03 [K]
-------------------------------------------------------------------------------
    external field VDW/kʙ        0.000000e+00 [K]
    external field Real/kʙ       0.000000e+00 [K]
    framework-molecule VDW/kʙ    0.000000e+00 [K]
    framework-molecule Real/kʙ   0.000000e+00 [K]
    molecule-molecule VDW/kʙ    -7.795933e+03 [K]
    molecule-molecule Real/kʙ   -1.588725e+03 [K]
    Van der Waals (Tail)/kʙ     -1.158741e+02 [K]
    Ewald Fourier/kʙ             2.711179e+03 [K]
    Ewald self/kʙ               -8.816055e+05 [K]
    Ewald exclusion/kʙ           8.787829e+05 [K]
    intra VDW/kʙ                 0.000000e+00 [K]
    intra Coulombic/kʙ           0.000000e+00 [K]
    polarization/kʙ              0.000000e+00 [K]
    dU/dlambda VDW/kʙ            0.000000e+00 [K]
    dU/dlambda Real/kʙ           0.000000e+00 [K]
    dU/dlambda Ewald/kʙ          0.000000e+00 [K]


Initialization: Current cycle: 1800 out of 2000
===============================================================================

Box:      33.54597   0.00000   0.00000
           0.00000  33.54597   0.00000
           0.00000   0.00000  33.54597
Lengths:  33.54597  33.54597  33.54597
Angles:   90.00000  90.00000  90.00000
Rectangular boundary conditions

net charge:   0.00000000

component   0 (CO2) lambda:  0 occupancy:  1 (1.000000)
    net charge:   0.00000000 [e]

Amount of molecules per component :
-------------------------------------------------------------------------------
Component 0 (CO2)
    molecules:         4.400000e+01 molecules
    number density:    1.165552e-03 molec/A^3
    density:           8.515725e+01 kg/m^3

Total potential energy/kʙ       -7.602215e+03 [K]
-------------------------------------------------------------------------------
    external field VDW/kʙ        0.000000e+00 [K]
    external field Real/kʙ       0.000000e+00 [K]
    framework-molecule VDW/kʙ    0.000000e+00 [K]
    framework-molecule Real/kʙ   0.000000e+00 [K]
    molecule-molecule VDW/kʙ    -5.620102e+03 [K]
    molecule-molecule Real/kʙ   -1.682658e+03 [K]
    Van der Waals (Tail)/kʙ     -9.524029e+01 [K]
    Ewald Fourier/kʙ             2.383233e+03 [K]
    Ewald self/kʙ               -8.081384e+05 [K]
    Ewald exclusion/kʙ           8.055510e+05 [K]
    intra VDW/kʙ                 0.000000e+00 [K]
    intra Coulombic/kʙ           0.000000e+00 [K]
    polarization/kʙ              0.000000e+00 [K]
    dU/dlambda VDW/kʙ            0.000000e+00 [K]
    dU/dlambda Real/kʙ           0.000000e+00 [K]
    dU/dlambda Ewald/kʙ          0.000000e+00 [K]


Initialization: Current cycle: 1900 out of 2000
===============================================================================

Box:      33.63720   0.00000   0.00000
           0.00000  33.63720   0.00000
           0.00000   0.00000  33.63720
Lengths:  33.63720  33.63720  33.63720
Angles:   90.00000  90.00000  90.00000
Rectangular boundary conditions

net charge:   0.00000000

component   0 (CO2) lambda:  0 occupancy:  1 (1.000000)
    net charge:   0.00000000 [e]

Amount of molecules per component :
-------------------------------------------------------------------------------
Component 0 (CO2)
    molecules:         6.400000e+01 molecules
    number density:    1.681591e-03 molec/A^3
    density:           1.228599e+02 kg/m^3

Total potential energy/kʙ       -1.413354e+04 [K]
-------------------------------------------------------------------------------
    external field VDW/kʙ        0.000000e+00 [K]
    external field Real/kʙ       0.000000e+00 [K]
    framework-molecule VDW/kʙ    0.000000e+00 [K]
    framework-molecule Real/kʙ   0.000000e+00 [K]
    molecule-molecule VDW/kʙ    -1.123319e+04 [K]
    molecule-molecule Real/kʙ   -2.178961e+03 [K]
    Van der Waals (Tail)/kʙ     -1.998649e+02 [K]
    Ewald Fourier/kʙ             3.242041e+03 [K]
    Ewald self/kʙ               -1.175474e+06 [K]
    Ewald exclusion/kʙ           1.171710e+06 [K]
    intra VDW/kʙ                 0.000000e+00 [K]
    intra Coulombic/kʙ           0.000000e+00 [K]
    polarization/kʙ              0.000000e+00 [K]
    dU/dlambda VDW/kʙ            0.000000e+00 [K]
    dU/dlambda Real/kʙ           0.000000e+00 [K]
    dU/dlambda Ewald/kʙ          0.000000e+00 [K]


Current cycle: 0 out of 6000
===============================================================================

Box:      33.44517   0.00000   0.00000  Average:  33.44517   0.00000   0.00000
           0.00000  33.44517   0.00000             0.00000  33.44517   0.00000
           0.00000   0.00000  33.44517             0.00000   0.00000  33.44517
Lengths:  33.44517  33.44517  33.44517  Average:  33.44517  33.44517  33.44517
Angles:   90.00000  90.00000  90.00000  Average:  90.00000  90.00000  90.00000
Rectangular boundary conditions

net charge:   0.00000000

component 0 (CO2) lambda:  0 occupancy:  1 (1.000000)
    net charge:   0.00000000 [e]

Amount of molecules per component :
-------------------------------------------------------------------------------
Component 0 (CO2)
    molecules:      5.300000e+01 molecules  (5.300000e+01 +/- 0.000000e+00)
    number density: 1.416693e-03 molec./A^3 (1.416693e-03 +/- 0.000000e+00)
    density:        1.035060e+02 kg/m^3     (1.035060e+02 +/- 0.000000e+00)

Average pressure tensor: 
-------------------------------------------------------------------------------
 5.4767e+01  0.0000e+00  0.0000e+00 +/- 0.0000e+00 0.0000e+00 0.0000e+00 [bar]
 0.0000e+00  5.4767e+01  0.0000e+00 +/- 0.0000e+00 0.0000e+00 0.0000e+00 [bar]
 0.0000e+00  0.0000e+00  5.4767e+01 +/- 0.0000e+00 0.0000e+00 0.0000e+00 [bar]
Ideal-gas pressure:   5.476681e+01 +/ 0.000000e+00 [bar]
Excess pressure:      0.000000e+00 +/ 0.000000e+00 [bar]
Pressure:             5.476681e+01 +/ 0.000000e+00 [bar]

Total potential energy/kʙ  -7.113857e+03 (-7.113857e+03 +/- 0.000000e+00) [K]
-------------------------------------------------------------------------------
ExternalField-molecule
    Van der Waals/kʙ        0.000000e+00 ( 0.000000e+00 +/- 0.000000e+00) [K]
Framework-molecule
    Van der Waals/kʙ        0.000000e+00 ( 0.000000e+00 +/- 0.000000e+00) [K]
    Van der Waals (Tail)/kʙ 0.000000e+00 ( 0.000000e+00 +/- 0.000000e+00) [K]
    Coulombic Real/kʙ       0.000000e+00 ( 0.000000e+00 +/- 0.000000e+00) [K]
    Coulombic Fourier/kʙ    0.000000e+00 ( 0.000000e+00 +/- 0.000000e+00) [K]
Molecule-molecule
    Van der Waals/kʙ       -6.434206e+03 (-6.434206e+03 +/- 0.000000e+00) [K]
    Van der Waals (Tail)/kʙ-1.394401e+02 (-1.394401e+02 +/- 0.000000e+00) [K]
    Coulombic Real/kʙ      -5.666123e+02 (-5.666123e+02 +/- 0.000000e+00) [K]
    Coulombic Fourier/kʙ    2.640189e+01 ( 2.640189e+01 +/- 0.000000e+00) [K]
    Molecule Intra/kʙ       0.000000e+00 ( 0.000000e+00 +/- 0.000000e+00) [K]

Current cycle: 100 out of 6000
===============================================================================

Box:      33.46357   0.00000   0.00000  Average:  33.42063   0.00000   0.00000
           0.00000  33.46357   0.00000             0.00000  33.42063   0.00000
           0.00000   0.00000  33.46357             0.00000   0.00000  33.42063
Lengths:  33.46357  33.46357  33.46357  Average:  33.42063  33.42063  33.42063
Angles:   90.00000  90.00000  90.00000  Average:  90.00000  90.00000  90.00000
Rectangular boundary conditions

net charge:   0.00000000

component 0 (CO2) lambda:  0 occupancy:  1 (1.000000)
    net charge:   0.00000000 [e]

Amount of molecules per component :
-------------------------------------------------------------------------------
Component 0 (CO2)
    molecules:      4.700000e+01 molecules  (4.698020e+01 +/- 0.000000e+00)
    number density: 1.254241e-03 molec./A^3 (1.258485e-03 +/- 0.000000e+00)
    density:        9.163697e+01 kg/m^3     (9.194709e+01 +/- 0.000000e+00)

Average pressure tensor: 
-------------------------------------------------------------------------------
 4.7688e+01 -8.6038e-01  3.0953e+00 +/- 0.0000e+00 0.0000e+00 0.0000e+00 [bar]
-8.6038e-01  4.0022e+01 -1.0735e+00 +/- 0.0000e+00 0.0000e+00 0.0000e+00 [bar]
 3.0953e+00 -1.0735e+00  5.0864e+01 +/- 0.0000e+00 0.0000e+00 0.0000e+00 [bar]
Ideal-gas pressure:   4.865079e+01 +/ 0.000000e+00 [bar]
Excess pressure:     -2.459114e+00 +/ 0.000000e+00 [bar]
Pressure:             4.619168e+01 +/ 0.000000e+00 [bar]

Total potential energy/kʙ  -7.089512e+03 (-7.159274e+03 +/- 0.000000e+00) [K]
-------------------------------------------------------------------------------
ExternalField-molecule
    Van der Waals/kʙ        0.000000e+00 ( 0.000000e+00 +/- 0.000000e+00) [K]
Framework-molecule
    Van der Waals/kʙ        0.000000e+00 ( 0.000000e+00 +/- 0.000000e+00) [K]
    Van der Waals (Tail)/kʙ 0.000000e+00 ( 0.000000e+00 +/- 0.000000e+00) [K]
    Coulombic Real/kʙ       0.000000e+00 ( 0.000000e+00 +/- 0.000000e+00) [K]
    Coulombic Fourier/kʙ    0.000000e+00 ( 0.000000e+00 +/- 0.000000e+00) [K]
Molecule-molecule
    Van der Waals/kʙ       -5.846035e+03 (-5.581529e+03 +/- 0.000000e+00) [K]
    Van der Waals (Tail)/kʙ-1.094750e+02 (-1.116164e+02 +/- 0.000000e+00) [K]
    Coulombic Real/kʙ      -8.937867e+02 (-1.290483e+03 +/- 0.000000e+00) [K]
    Coulombic Fourier/kʙ   -2.402161e+02 (-1.756455e+02 +/- 0.000000e+00) [K]
    Molecule Intra/kʙ       0.000000e+00 ( 0.000000e+00 +/- 0.000000e+00) [K]

Current cycle: 200 out of 6000
===============================================================================

Box:      33.21806   0.00000   0.00000  Average:  33.40131   0.00000   0.00000
           0.00000  33.21806   0.00000             0.00000  33.40131   0.00000
           0.00000   0.00000  33.21806             0.00000   0.00000  33.40131
Lengths:  33.21806  33.21806  33.21806  Average:  33.40131  33.40131  33.40131
Angles:   90.00000  90.00000  90.00000  Average:  90.00000  90.00000  90.00000
Rectangular boundary conditions

net charge:   0.00000000

component 0 (CO2) lambda:  0 occupancy:  1 (1.000000)
    net charge:   0.00000000 [e]

Amount of molecules per component :
-------------------------------------------------------------------------------
Component 0 (CO2)
    molecules:      3.500000e+01 molecules  (4.769154e+01 +/- 0.000000e+00)
    number density: 9.548726e-04 molec./A^3 (1.279627e-03 +/- 0.000000e+00)
    density:        6.976462e+01 kg/m^3     (9.349176e+01 +/- 0.000000e+00)

Average pressure tensor: 
-------------------------------------------------------------------------------
 4.1207e+01 -2.3460e+00  4.7184e-01 +/- 0.0000e+00 0.0000e+00 0.0000e+00 [bar]
-2.3460e+00  3.9246e+01 -1.6582e+00 +/- 0.0000e+00 0.0000e+00 0.0000e+00 [bar]
 4.7184e-01 -1.6582e+00  4.2750e+01 +/- 0.0000e+00 0.0000e+00 0.0000e+00 [bar]
Ideal-gas pressure:   4.946810e+01 +/ 0.000000e+00 [bar]
Excess pressure:     -8.400276e+00 +/ 0.000000e+00 [bar]
Pressure:             4.106782e+01 +/ 0.000000e+00 [bar]

Total potential energy/kʙ  -4.307082e+03 (-7.478765e+03 +/- 0.000000e+00) [K]
-------------------------------------------------------------------------------
ExternalField-molecule
    Van der Waals/kʙ        0.000000e+00 ( 0.000000e+00 +/- 0.000000e+00) [K]
Framework-molecule
    Van der Waals/kʙ        0.000000e+00 ( 0.000000e+00 +/- 0.000000e+00) [K]
    Van der Waals (Tail)/kʙ 0.000000e+00 ( 0.000000e+00 +/- 0.000000e+00) [K]
    Coulombic Real/kʙ       0.000000e+00 ( 0.000000e+00 +/- 0.000000e+00) [K]
    Coulombic Fourier/kʙ    0.000000e+00 ( 0.000000e+00 +/- 0.000000e+00) [K]
Molecule-molecule
    Van der Waals/kʙ       -3.013325e+03 (-5.608097e+03 +/- 0.000000e+00) [K]
    Van der Waals (Tail)/kʙ-6.206542e+01 (-1.122979e+02 +/- 0.000000e+00) [K]
    Coulombic Real/kʙ      -1.191128e+03 (-1.566370e+03 +/- 0.000000e+00) [K]
    Coulombic Fourier/kʙ   -4.056327e+01 (-1.919996e+02 +/- 0.000000e+00) [K]
    Molecule Intra/kʙ       0.000000e+00 ( 0.000000e+00 +/- 0.000000e+00) [K]

Current cycle: 300 out of 6000
===============================================================================

Box:      33.39896   0.00000   0.00000  Average:  33.35776   0.00000   0.00000
           0.00000  33.39896   0.00000             0.00000  33.35776   0.00000
           0.00000   0.00000  33.39896             0.00000   0.00000  33.35776
Lengths:  33.39896  33.39896  33.39896  Average:  33.35776  33.35776  33.35776
Angles:   90.00000  90.00000  90.00000  Average:  90.00000  90.00000  90.00000
Rectangular boundary conditions

net charge:   0.00000000

component 0 (CO2) lambda:  0 occupancy:  1 (1.000000)
    net charge:   0.00000000 [e]

Amount of molecules per component :
-------------------------------------------------------------------------------
Component 0 (CO2)
    molecules:      5.100000e+01 molecules  (4.869767e+01 +/- 0.000000e+00)
    number density: 1.368899e-03 molec./A^3 (1.312060e-03 +/- 0.000000e+00)
    density:        1.000141e+02 kg/m^3     (9.586137e+01 +/- 0.000000e+00)

Average pressure tensor: 
-------------------------------------------------------------------------------
 3.9879e+01 -1.6106e+00  1.4494e+00 +/- 0.0000e+00 0.0000e+00 0.0000e+00 [bar]
-1.6106e+00  3.7647e+01 -8.4894e-01 +/- 0.0000e+00 0.0000e+00 0.0000e+00 [bar]
 1.4494e+00 -8.4894e-01  4.4935e+01 +/- 0.0000e+00 0.0000e+00 0.0000e+00 [bar]
Ideal-gas pressure:   5.072190e+01 +/ 0.000000e+00 [bar]
Excess pressure:     -9.901303e+00 +/ 0.000000e+00 [bar]
Pressure:             4.082060e+01 +/ 0.000000e+00 [bar]

Total potential energy/kʙ  -9.918301e+03 (-7.857499e+03 +/- 0.000000e+00) [K]
-------------------------------------------------------------------------------
ExternalField-molecule
    Van der Waals/kʙ        0.000000e+00 ( 0.000000e+00 +/- 0.000000e+00) [K]
Framework-molecule
    Van der Waals/kʙ        0.000000e+00 ( 0.000000e+00 +/- 0.000000e+00) [K]
    Van der Waals (Tail)/kʙ 0.000000e+00 ( 0.000000e+00 +/- 0.000000e+00) [K]
    Coulombic Real/kʙ       0.000000e+00 ( 0.000000e+00 +/- 0.000000e+00) [K]
    Coulombic Fourier/kʙ    0.000000e+00 ( 0.000000e+00 +/- 0.000000e+00) [K]
Molecule-molecule
    Van der Waals/kʙ       -8.169069e+03 (-6.010974e+03 +/- 0.000000e+00) [K]
    Van der Waals (Tail)/kʙ-1.296516e+02 (-1.170295e+02 +/- 0.000000e+00) [K]
    Coulombic Real/kʙ      -1.573964e+03 (-1.543560e+03 +/- 0.000000e+00) [K]
    Coulombic Fourier/kʙ   -4.561684e+01 (-1.859348e+02 +/- 0.000000e+00) [K]
    Molecule Intra/kʙ       0.000000e+00 ( 0.000000e+00 +/- 0.000000e+00) [K]

Current cycle: 400 out of 6000
===============================================================================

Box:      33.40487   0.00000   0.00000  Average:  33.35500   0.00000   0.00000
           0.00000  33.40487   0.00000             0.00000  33.35500   0.00000
           0.00000   0.00000  33.40487             0.00000   0.00000  33.35500
Lengths:  33.40487  33.40487  33.40487  Average:  33.35500  33.35500  33.35500
Angles:   90.00000  90.00000  90.00000  Average:  90.00000  90.00000  90.00000
Rectangular boundary conditions

net charge:   0.00000000

component 0 (CO2) lambda:  0 occupancy:  1 (1.000000)
    net charge:   0.00000000 [e]

Amount of molecules per component :
-------------------------------------------------------------------------------
Component 0 (CO2)
    molecules:      5.000000e+01 molecules  (4.897007e+01 +/- 0.000000e+00)
    number density: 1.341346e-03 molec./A^3 (1.319699e-03 +/- 0.000000e+00)
    density:        9.800102e+01 kg/m^3     (9.641947e+01 +/- 0.000000e+00)

Average pressure tensor: 
-------------------------------------------------------------------------------
 3.9418e+01  8.1597e-01  1.6590e+00 +/- 0.0000e+00 0.0000e+00 0.0000e+00 [bar]
 8.1597e-01  3.9183e+01 -2.1101e+00 +/- 0.0000e+00 0.0000e+00 0.0000e+00 [bar]
 1.6590e+00 -2.1101e+00  4.4669e+01 +/- 0.0000e+00 0.0000e+00 0.0000e+00 [bar]
Ideal-gas pressure:   5.101720e+01 +/ 0.000000e+00 [bar]
Excess pressure:     -9.927102e+00 +/ 0.000000e+00 [bar]
Pressure:             4.109010e+01 +/ 0.000000e+00 [bar]

Total potential energy/kʙ  -1.179384e+04 (-8.107721e+03 +/- 0.000000e+00) [K]
-------------------------------------------------------------------------------
ExternalField-molecule
    Van der Waals/kʙ        0.000000e+00 ( 0.000000e+00 +/- 0.000000e+00) [K]
Framework-molecule
    Van der Waals/kʙ        0.000000e+00 ( 0.000000e+00 +/- 0.000000e+00) [K]
    Van der Waals (Tail)/kʙ 0.000000e+00 ( 0.000000e+00 +/- 0.000000e+00) [K]
    Coulombic Real/kʙ       0.000000e+00 ( 0.000000e+00 +/- 0.000000e+00) [K]
    Coulombic Fourier/kʙ    0.000000e+00 ( 0.000000e+00 +/- 0.000000e+00) [K]
Molecule-molecule
    Van der Waals/kʙ       -8.970393e+03 (-6.203008e+03 +/- 0.000000e+00) [K]
    Van der Waals (Tail)/kʙ-1.245509e+02 (-1.171396e+02 +/- 0.000000e+00) [K]
    Coulombic Real/kʙ      -2.660384e+03 (-1.618225e+03 +/- 0.000000e+00) [K]
    Coulombic Fourier/kʙ   -3.850844e+01 (-1.693484e+02 +/- 0.000000e+00) [K]
    Molecule Intra/kʙ       0.000000e+00 ( 0.000000e+00 +/- 0.000000e+00) [K]

Current cycle: 500 out of 6000
===============================================================================

Box:      33.30095   0.00000   0.00000  Average:  33.35441   0.00000   0.00000
           0.00000  33.30095   0.00000             0.00000  33.35441   0.00000
           0.00000   0.00000  33.30095             0.00000   0.00000  33.35441
Lengths:  33.30095  33.30095  33.30095  Average:  33.35441  33.35441  33.35441
Angles:   90.00000  90.00000  90.00000  Average:  90.00000  90.00000  90.00000
Rectangular boundary conditions

net charge:   0.00000000

component 0 (CO2) lambda:  0 occupancy:  1 (1.000000)
    net charge:   0.00000000 [e]

Amount of molecules per component :
-------------------------------------------------------------------------------
Component 0 (CO2)
    molecules:      4.200000e+01 molecules  (4.914571e+01 +/- 0.000000e+00)
    number density: 1.137312e-03 molec./A^3 (1.324491e-03 +/- 0.000000e+00)
    density:        8.309393e+01 kg/m^3     (9.676961e+01 +/- 0.000000e+00)

Average pressure tensor: 
-------------------------------------------------------------------------------
 3.7953e+01 -3.7573e-01  2.1932e+00 +/- 0.0000e+00 0.0000e+00 0.0000e+00 [bar]
-3.7573e-01  3.9575e+01 -1.4984e+00 +/- 0.0000e+00 0.0000e+00 0.0000e+00 [bar]
 2.1932e+00 -1.4984e+00  4.2404e+01 +/- 0.0000e+00 0.0000e+00 0.0000e+00 [bar]
Ideal-gas pressure:   5.120247e+01 +/ 0.000000e+00 [bar]
Excess pressure:     -1.122510e+01 +/ 0.000000e+00 [bar]
Pressure:             3.997737e+01 +/ 0.000000e+00 [bar]

Total potential energy/kʙ  -5.070722e+03 (-8.220402e+03 +/- 0.000000e+00) [K]
-------------------------------------------------------------------------------
ExternalField-molecule
    Van der Waals/kʙ        0.000000e+00 ( 0.000000e+00 +/- 0.000000e+00) [K]
Framework-molecule
    Van der Waals/kʙ        0.000000e+00 ( 0.000000e+00 +/- 0.000000e+00) [K]
    Van der Waals (Tail)/kʙ 0.000000e+00 ( 0.000000e+00 +/- 0.000000e+00) [K]
    Coulombic Real/kʙ       0.000000e+00 ( 0.000000e+00 +/- 0.000000e+00) [K]
    Coulombic Fourier/kʙ    0.000000e+00 ( 0.000000e+00 +/- 0.000000e+00) [K]
Molecule-molecule
    Van der Waals/kʙ       -4.573661e+03 (-6.291480e+03 +/- 0.000000e+00) [K]
    Van der Waals (Tail)/kʙ-8.870845e+01 (-1.171393e+02 +/- 0.000000e+00) [K]
    Coulombic Real/kʙ      -4.351359e+02 (-1.659516e+03 +/- 0.000000e+00) [K]
    Coulombic Fourier/kʙ    2.678368e+01 (-1.522668e+02 +/- 0.000000e+00) [K]
    Molecule Intra/kʙ       0.000000e+00 ( 0.000000e+00 +/- 0.000000e+00) [K]

Current cycle: 600 out of 6000
===============================================================================

Box:      33.33135   0.00000   0.00000  Average:  33.32868   0.00000   0.00000
           0.00000  33.33135   0.00000             0.00000  33.32868   0.00000
           0.00000   0.00000  33.33135             0.00000   0.00000  33.32868
Lengths:  33.33135  33.33135  33.33135  Average:  33.32868  33.32868  33.32868
Angles:   90.00000  90.00000  90.00000  Average:  90.00000  90.00000  90.00000
Rectangular boundary conditions

net charge:   0.00000000

component 0 (CO2) lambda:  0 occupancy:  1 (1.000000)
    net charge:   0.00000000 [e]

Amount of molecules per component :
-------------------------------------------------------------------------------
Component 0 (CO2)
    molecules:      5.800000e+01 molecules  (4.820965e+01 +/- 0.000000e+00)
    number density: 1.566280e-03 molec./A^3 (1.301833e-03 +/- 0.000000e+00)
    density:        1.144351e+02 kg/m^3     (9.511418e+01 +/- 0.000000e+00)

Average pressure tensor: 
-------------------------------------------------------------------------------
 3.5577e+01 -9.3142e-01  2.3676e+00 +/- 0.0000e+00 0.0000e+00 0.0000e+00 [bar]
-9.3142e-01  3.8304e+01 -1.2127e+00 +/- 0.0000e+00 0.0000e+00 0.0000e+00 [bar]
 2.3676e+00 -1.2127e+00  4.0845e+01 +/- 0.0000e+00 0.0000e+00 0.0000e+00 [bar]
Ideal-gas pressure:   5.032655e+01 +/ 0.000000e+00 [bar]
Excess pressure:     -1.208450e+01 +/ 0.000000e+00 [bar]
Pressure:             3.824205e+01 +/ 0.000000e+00 [bar]

Total potential energy/kʙ  -1.102256e+04 (-8.072152e+03 +/- 0.000000e+00) [K]
-------------------------------------------------------------------------------
ExternalField-molecule
    Van der Waals/kʙ        0.000000e+00 ( 0.000000e+00 +/- 0.000000e+00) [K]
Framework-molecule
    Van der Waals/kʙ        0.000000e+00 ( 0.000000e+00 +/- 0.000000e+00) [K]
    Van der Waals (Tail)/kʙ 0.000000e+00 ( 0.000000e+00 +/- 0.000000e+00) [K]
    Coulombic Real/kʙ       0.000000e+00 ( 0.000000e+00 +/- 0.000000e+00) [K]
    Coulombic Fourier/kʙ    0.000000e+00 ( 0.000000e+00 +/- 0.000000e+00) [K]
Molecule-molecule
    Van der Waals/kʙ       -9.296759e+03 (-6.185679e+03 +/- 0.000000e+00) [K]
    Van der Waals (Tail)/kʙ-1.687072e+02 (-1.150530e+02 +/- 0.000000e+00) [K]
    Coulombic Real/kʙ      -1.388527e+03 (-1.617032e+03 +/- 0.000000e+00) [K]
    Coulombic Fourier/kʙ   -1.685664e+02 (-1.543890e+02 +/- 0.000000e+00) [K]
    Molecule Intra/kʙ       0.000000e+00 ( 0.000000e+00 +/- 0.000000e+00) [K]

Current cycle: 700 out of 6000
===============================================================================

Box:      32.73619   0.00000   0.00000  Average:  33.28855   0.00000   0.00000
           0.00000  32.73619   0.00000             0.00000  33.28855   0.00000
           0.00000   0.00000  32.73619             0.00000   0.00000  33.28855
Lengths:  32.73619  32.73619  32.73619  Average:  33.28855  33.28855  33.28855
Angles:   90.00000  90.00000  90.00000  Average:  90.00000  90.00000  90.00000
Rectangular boundary conditions

net charge:   0.00000000

component 0 (CO2) lambda:  0 occupancy:  1 (1.000000)
    net charge:   0.00000000 [e]

Amount of molecules per component :
-------------------------------------------------------------------------------
Component 0 (CO2)
    molecules:      3.700000e+01 molecules  (4.736805e+01 +/- 0.000000e+00)
    number density: 1.054672e-03 molec./A^3 (1.283145e-03 +/- 0.000000e+00)
    density:        7.705612e+01 kg/m^3     (9.374875e+01 +/- 0.000000e+00)

Average pressure tensor: 
-------------------------------------------------------------------------------
 3.5385e+01 -1.5790e+00  2.4192e+00 +/- 0.0000e+00 0.0000e+00 0.0000e+00 [bar]
-1.5790e+00  3.6862e+01 -1.3819e+00 +/- 0.0000e+00 0.0000e+00 0.0000e+00 [bar]
 2.4192e+00 -1.3819e+00  3.8308e+01 +/- 0.0000e+00 0.0000e+00 0.0000e+00 [bar]
Ideal-gas pressure:   4.960408e+01 +/ 0.000000e+00 [bar]
Excess pressure:     -1.275243e+01 +/ 0.000000e+00 [bar]
Pressure:             3.685165e+01 +/ 0.000000e+00 [bar]

Total potential energy/kʙ  -4.902785e+03 (-7.887355e+03 +/- 0.000000e+00) [K]
-------------------------------------------------------------------------------
ExternalField-molecule
    Van der Waals/kʙ        0.000000e+00 ( 0.000000e+00 +/- 0.000000e+00) [K]
Framework-molecule
    Van der Waals/kʙ        0.000000e+00 ( 0.000000e+00 +/- 0.000000e+00) [K]
    Van der Waals (Tail)/kʙ 0.000000e+00 ( 0.000000e+00 +/- 0.000000e+00) [K]
    Coulombic Real/kʙ       0.000000e+00 ( 0.000000e+00 +/- 0.000000e+00) [K]
    Coulombic Fourier/kʙ    0.000000e+00 ( 0.000000e+00 +/- 0.000000e+00) [K]
Molecule-molecule
    Van der Waals/kʙ       -2.928199e+03 (-6.036255e+03 +/- 0.000000e+00) [K]
    Van der Waals (Tail)/kʙ-7.246949e+01 (-1.122422e+02 +/- 0.000000e+00) [K]
    Coulombic Real/kʙ      -1.647224e+03 (-1.585670e+03 +/- 0.000000e+00) [K]
    Coulombic Fourier/kʙ   -2.548926e+02 (-1.531881e+02 +/- 0.000000e+00) [K]
    Molecule Intra/kʙ       0.000000e+00 ( 0.000000e+00 +/- 0.000000e+00) [K]

Current cycle: 800 out of 6000
===============================================================================

Box:      32.93532   0.00000   0.00000  Average:  33.24022   0.00000   0.00000
           0.00000  32.93532   0.00000             0.00000  33.24022   0.00000
           0.00000   0.00000  32.93532             0.00000   0.00000  33.24022
Lengths:  32.93532  32.93532  32.93532  Average:  33.24022  33.24022  33.24022
Angles:   90.00000  90.00000  90.00000  Average:  90.00000  90.00000  90.00000
Rectangular boundary conditions

net charge:   0.00000000

component 0 (CO2) lambda:  0 occupancy:  1 (1.000000)
    net charge:   0.00000000 [e]

Amount of molecules per component :
-------------------------------------------------------------------------------
Component 0 (CO2)
    molecules:      3.300000e+01 molecules  (4.616979e+01 +/- 0.000000e+00)
    number density: 9.236939e-04 molec./A^3 (1.255336e-03 +/- 0.000000e+00)
    density:        6.748666e+01 kg/m^3     (9.171701e+01 +/- 0.000000e+00)

Average pressure tensor: 
-------------------------------------------------------------------------------
 3.5030e+01 -1.7017e+00  1.7169e+00 +/- 0.0000e+00 0.0000e+00 0.0000e+00 [bar]
-1.7017e+00  3.6857e+01 -1.6334e+00 +/- 0.0000e+00 0.0000e+00 0.0000e+00 [bar]
 1.7169e+00 -1.6334e+00  3.7833e+01 +/- 0.0000e+00 0.0000e+00 0.0000e+00 [bar]
Ideal-gas pressure:   4.852905e+01 +/ 0.000000e+00 [bar]
Excess pressure:     -1.195545e+01 +/ 0.000000e+00 [bar]
Pressure:             3.657360e+01 +/ 0.000000e+00 [bar]

Total potential energy/kʙ  -5.288169e+03 (-7.465031e+03 +/- 0.000000e+00) [K]
-------------------------------------------------------------------------------
ExternalField-molecule
    Van der Waals/kʙ        0.000000e+00 ( 0.000000e+00 +/- 0.000000e+00) [K]
Framework-molecule
    Van der Waals/kʙ        0.000000e+00 ( 0.000000e+00 +/- 0.000000e+00) [K]
    Van der Waals (Tail)/kʙ 0.000000e+00 ( 0.000000e+00 +/- 0.000000e+00) [K]
    Coulombic Real/kʙ       0.000000e+00 ( 0.000000e+00 +/- 0.000000e+00) [K]
    Coulombic Fourier/kʙ    0.000000e+00 ( 0.000000e+00 +/- 0.000000e+00) [K]
Molecule-molecule
    Van der Waals/kʙ       -3.945182e+03 (-5.719187e+03 +/- 0.000000e+00) [K]
    Van der Waals (Tail)/kʙ-5.660806e+01 (-1.070521e+02 +/- 0.000000e+00) [K]
    Coulombic Real/kʙ      -1.180460e+03 (-1.493333e+03 +/- 0.000000e+00) [K]
    Coulombic Fourier/kʙ   -1.059187e+02 (-1.454597e+02 +/- 0.000000e+00) [K]
    Molecule Intra/kʙ       0.000000e+00 ( 0.000000e+00 +/- 0.000000e+00) [K]

Current cycle: 900 out of 6000
===============================================================================

Box:      32.90365   0.00000   0.00000  Average:  33.21067   0.00000   0.00000
           0.00000  32.90365   0.00000             0.00000  33.21067   0.00000
           0.00000   0.00000  32.90365             0.00000   0.00000  33.21067
Lengths:  32.90365  32.90365  32.90365  Average:  33.21067  33.21067  33.21067
Angles:   90.00000  90.00000  90.00000  Average:  90.00000  90.00000  90.00000
Rectangular boundary conditions

net charge:   0.00000000

component 0 (CO2) lambda:  0 occupancy:  1 (1.000000)
    net charge:   0.00000000 [e]

Amount of molecules per component :
-------------------------------------------------------------------------------
Component 0 (CO2)
    molecules:      5.600000e+01 molecules  (4.555383e+01 +/- 0.000000e+00)
    number density: 1.572011e-03 molec./A^3 (1.241719e-03 +/- 0.000000e+00)
    density:        1.148538e+02 kg/m^3     (9.072210e+01 +/- 0.000000e+00)

Average pressure tensor: 
-------------------------------------------------------------------------------
 3.5027e+01 -2.3637e+00  1.5933e+00 +/- 0.0000e+00 0.0000e+00 0.0000e+00 [bar]
-2.3637e+00  3.6212e+01 -1.4070e+00 +/- 0.0000e+00 0.0000e+00 0.0000e+00 [bar]
 1.5933e+00 -1.4070e+00  3.7192e+01 +/- 0.0000e+00 0.0000e+00 0.0000e+00 [bar]
Ideal-gas pressure:   4.800263e+01 +/ 0.000000e+00 [bar]
Excess pressure:     -1.185920e+01 +/ 0.000000e+00 [bar]
Pressure:             3.614342e+01 +/ 0.000000e+00 [bar]

Total potential energy/kʙ  -1.139478e+04 (-7.368239e+03 +/- 0.000000e+00) [K]
-------------------------------------------------------------------------------
ExternalField-molecule
    Van der Waals/kʙ        0.000000e+00 ( 0.000000e+00 +/- 0.000000e+00) [K]
Framework-molecule
    Van der Waals/kʙ        0.000000e+00 ( 0.000000e+00 +/- 0.000000e+00) [K]
    Van der Waals (Tail)/kʙ 0.000000e+00 ( 0.000000e+00 +/- 0.000000e+00) [K]
    Coulombic Real/kʙ       0.000000e+00 ( 0.000000e+00 +/- 0.000000e+00) [K]
    Coulombic Fourier/kʙ    0.000000e+00 ( 0.000000e+00 +/- 0.000000e+00) [K]
Molecule-molecule
    Van der Waals/kʙ       -8.027863e+03 (-5.601135e+03 +/- 0.000000e+00) [K]
    Van der Waals (Tail)/kʙ-1.634858e+02 (-1.053750e+02 +/- 0.000000e+00) [K]
    Coulombic Real/kʙ      -2.797015e+03 (-1.514845e+03 +/- 0.000000e+00) [K]
    Coulombic Fourier/kʙ   -4.064209e+02 (-1.468845e+02 +/- 0.000000e+00) [K]
    Molecule Intra/kʙ       0.000000e+00 ( 0.000000e+00 +/- 0.000000e+00) [K]

Current cycle: 1000 out of 6000
===============================================================================

Box:      32.88945   0.00000   0.00000  Average:  33.16909   0.00000   0.00000
           0.00000  32.88945   0.00000             0.00000  33.16909   0.00000
           0.00000   0.00000  32.88945             0.00000   0.00000  33.16909
Lengths:  32.88945  32.88945  32.88945  Average:  33.16909  33.16909  33.16909
Angles:   90.00000  90.00000  90.00000  Average:  90.00000  90.00000  90.00000
Rectangular boundary conditions

net charge:   0.00000000

component 0 (CO2) lambda:  0 occupancy:  1 (1.000000)
    net charge:   0.00000000 [e]

Amount of molecules per component :
-------------------------------------------------------------------------------
Component 0 (CO2)
    molecules:      3.400000e+01 molecules  (4.511289e+01 +/- 0.000000e+00)
    number density: 9.556724e-04 molec./A^3 (1.234152e-03 +/- 0.000000e+00)
    density:        6.982306e+01 kg/m^3     (9.016928e+01 +/- 0.000000e+00)

Average pressure tensor: 
-------------------------------------------------------------------------------
 3.5689e+01 -1.9238e+00  1.7063e+00 +/- 0.0000e+00 0.0000e+00 0.0000e+00 [bar]
-1.9238e+00  3.6362e+01 -1.4502e+00 +/- 0.0000e+00 0.0000e+00 0.0000e+00 [bar]
 1.7063e+00 -1.4502e+00  3.7172e+01 +/- 0.0000e+00 0.0000e+00 0.0000e+00 [bar]
Ideal-gas pressure:   4.771012e+01 +/ 0.000000e+00 [bar]
Excess pressure:     -1.130267e+01 +/ 0.000000e+00 [bar]
Pressure:             3.640745e+01 +/ 0.000000e+00 [bar]

Total potential energy/kʙ  -2.140803e+03 (-7.195963e+03 +/- 0.000000e+00) [K]
-------------------------------------------------------------------------------
ExternalField-molecule
    Van der Waals/kʙ        0.000000e+00 ( 0.000000e+00 +/- 0.000000e+00) [K]
Framework-molecule
    Van der Waals/kʙ        0.000000e+00 ( 0.000000e+00 +/- 0.000000e+00) [K]
    Van der Waals (Tail)/kʙ 0.000000e+00 ( 0.000000e+00 +/- 0.000000e+00) [K]
    Coulombic Real/kʙ       0.000000e+00 ( 0.000000e+00 +/- 0.000000e+00) [K]
    Coulombic Fourier/kʙ    0.000000e+00 ( 0.000000e+00 +/- 0.000000e+00) [K]
Molecule-molecule
    Van der Waals/kʙ       -1.675036e+03 (-5.466915e+03 +/- 0.000000e+00) [K]
    Van der Waals (Tail)/kʙ-6.034262e+01 (-1.034100e+02 +/- 0.000000e+00) [K]
    Coulombic Real/kʙ      -3.462861e+02 (-1.480131e+03 +/- 0.000000e+00) [K]
    Coulombic Fourier/kʙ   -5.913845e+01 (-1.455059e+02 +/- 0.000000e+00) [K]
    Molecule Intra/kʙ       0.000000e+00 ( 0.000000e+00 +/- 0.000000e+00) [K]

Current cycle: 1100 out of 6000
===============================================================================

Box:      32.53603   0.00000   0.00000  Average:  33.12569   0.00000   0.00000
           0.00000  32.53603   0.00000             0.00000  33.12569   0.00000
           0.00000   0.00000  32.53603             0.00000   0.00000  33.12569
Lengths:  32.53603  32.53603  32.53603  Average:  33.12569  33.12569  33.12569
Angles:   90.00000  90.00000  90.00000  Average:  90.00000  90.00000  90.00000
Rectangular boundary conditions

net charge:   0.00000000

component 0 (CO2) lambda:  0 occupancy:  1 (1.000000)
    net charge:   0.00000000 [e]

Amount of molecules per component :
-------------------------------------------------------------------------------
Component 0 (CO2)
    molecules:      2.400000e+01 molecules  (4.393097e+01 +/- 0.000000e+00)
    number density: 6.968151e-04 molec./A^3 (1.205412e-03 +/- 0.000000e+00)
    density:        5.091050e+01 kg/m^3     (8.806950e+01 +/- 0.000000e+00)

Average pressure tensor: 
-------------------------------------------------------------------------------
 3.4908e+01 -2.1494e+00  1.2493e+00 +/- 0.0000e+00 0.0000e+00 0.0000e+00 [bar]
-2.1494e+00  3.6550e+01 -1.1373e+00 +/- 0.0000e+00 0.0000e+00 0.0000e+00 [bar]
 1.2493e+00 -1.1373e+00  3.6902e+01 +/- 0.0000e+00 0.0000e+00 0.0000e+00 [bar]
Ideal-gas pressure:   4.659909e+01 +/ 0.000000e+00 [bar]
Excess pressure:     -1.047926e+01 +/ 0.000000e+00 [bar]
Pressure:             3.611982e+01 +/ 0.000000e+00 [bar]

Total potential energy/kʙ  -7.583605e+02 (-6.865829e+03 +/- 0.000000e+00) [K]
-------------------------------------------------------------------------------
ExternalField-molecule
    Van der Waals/kʙ        0.000000e+00 ( 0.000000e+00 +/- 0.000000e+00) [K]
Framework-molecule
    Van der Waals/kʙ        0.000000e+00 ( 0.000000e+00 +/- 0.000000e+00) [K]
    Van der Waals (Tail)/kʙ 0.000000e+00 ( 0.000000e+00 +/- 0.000000e+00) [K]
    Coulombic Real/kʙ       0.000000e+00 ( 0.000000e+00 +/- 0.000000e+00) [K]
    Coulombic Fourier/kʙ    0.000000e+00 ( 0.000000e+00 +/- 0.000000e+00) [K]
Molecule-molecule
    Van der Waals/kʙ       -5.632339e+02 (-5.209523e+03 +/- 0.000000e+00) [K]
    Van der Waals (Tail)/kʙ-3.105739e+01 (-9.906925e+01 +/- 0.000000e+00) [K]
    Coulombic Real/kʙ      -4.429240e+01 (-1.415419e+03 +/- 0.000000e+00) [K]
    Coulombic Fourier/kʙ   -1.197768e+02 (-1.418179e+02 +/- 0.000000e+00) [K]
    Molecule Intra/kʙ       0.000000e+00 ( 0.000000e+00 +/- 0.000000e+00) [K]

Current cycle: 1200 out of 6000
===============================================================================

Box:      32.94030   0.00000   0.00000  Average:  33.09457   0.00000   0.00000
           0.00000  32.94030   0.00000             0.00000  33.09457   0.00000
           0.00000   0.00000  32.94030             0.00000   0.00000  33.09457
Lengths:  32.94030  32.94030  32.94030  Average:  33.09457  33.09457  33.09457
Angles:   90.00000  90.00000  90.00000  Average:  90.00000  90.00000  90.00000
Rectangular boundary conditions

net charge:   0.00000000

component 0 (CO2) lambda:  0 occupancy:  1 (1.000000)
    net charge:   0.00000000 [e]

Amount of molecules per component :
-------------------------------------------------------------------------------
Component 0 (CO2)
    molecules:      4.000000e+01 molecules  (4.369192e+01 +/- 0.000000e+00)
    number density: 1.119122e-03 molec./A^3 (1.202326e-03 +/- 0.000000e+00)
    density:        8.176495e+01 kg/m^3     (8.784397e+01 +/- 0.000000e+00)

Average pressure tensor: 
-------------------------------------------------------------------------------
 3.4208e+01 -2.0698e+00  7.6399e-01 +/- 0.0000e+00 0.0000e+00 0.0000e+00 [bar]
-2.0698e+00  3.6023e+01 -1.5715e+00 +/- 0.0000e+00 0.0000e+00 0.0000e+00 [bar]
 7.6399e-01 -1.5715e+00  3.6137e+01 +/- 0.0000e+00 0.0000e+00 0.0000e+00 [bar]
Ideal-gas pressure:   4.647975e+01 +/ 0.000000e+00 [bar]
Excess pressure:     -1.102361e+01 +/ 0.000000e+00 [bar]
Pressure:             3.545614e+01 +/ 0.000000e+00 [bar]

Total potential energy/kʙ  -6.744999e+03 (-6.979198e+03 +/- 0.000000e+00) [K]
-------------------------------------------------------------------------------
ExternalField-molecule
    Van der Waals/kʙ        0.000000e+00 ( 0.000000e+00 +/- 0.000000e+00) [K]
Framework-molecule
    Van der Waals/kʙ        0.000000e+00 ( 0.000000e+00 +/- 0.000000e+00) [K]
    Van der Waals (Tail)/kʙ 0.000000e+00 ( 0.000000e+00 +/- 0.000000e+00) [K]
    Coulombic Real/kʙ       0.000000e+00 ( 0.000000e+00 +/- 0.000000e+00) [K]
    Coulombic Fourier/kʙ    0.000000e+00 ( 0.000000e+00 +/- 0.000000e+00) [K]
Molecule-molecule
    Van der Waals/kʙ       -6.761403e+03 (-5.296062e+03 +/- 0.000000e+00) [K]
    Van der Waals (Tail)/kʙ-8.313302e+01 (-9.886111e+01 +/- 0.000000e+00) [K]
    Coulombic Real/kʙ      -9.675813e+01 (-1.446114e+03 +/- 0.000000e+00) [K]
    Coulombic Fourier/kʙ    1.962951e+02 (-1.381609e+02 +/- 0.000000e+00) [K]
    Molecule Intra/kʙ       0.000000e+00 ( 0.000000e+00 +/- 0.000000e+00) [K]

Current cycle: 1300 out of 6000
===============================================================================

Box:      32.67362   0.00000   0.00000  Average:  33.07548   0.00000   0.00000
           0.00000  32.67362   0.00000             0.00000  33.07548   0.00000
           0.00000   0.00000  32.67362             0.00000   0.00000  33.07548
Lengths:  32.67362  32.67362  32.67362  Average:  33.07548  33.07548  33.07548
Angles:   90.00000  90.00000  90.00000  Average:  90.00000  90.00000  90.00000
Rectangular boundary conditions

net charge:   0.00000000

component 0 (CO2) lambda:  0 occupancy:  1 (1.000000)
    net charge:   0.00000000 [e]

Amount of molecules per component :
-------------------------------------------------------------------------------
Component 0 (CO2)
    molecules:      3.000000e+01 molecules  (4.318294e+01 +/- 0.000000e+00)
    number density: 8.600616e-04 molec./A^3 (1.190190e-03 +/- 0.000000e+00)
    density:        6.283757e+01 kg/m^3     (8.695731e+01 +/- 0.000000e+00)

Average pressure tensor: 
-------------------------------------------------------------------------------
 3.3801e+01 -1.5836e+00  7.8078e-01 +/- 0.0000e+00 0.0000e+00 0.0000e+00 [bar]
-1.5836e+00  3.5460e+01 -1.4831e+00 +/- 0.0000e+00 0.0000e+00 0.0000e+00 [bar]
 7.8078e-01 -1.4831e+00  3.5573e+01 +/- 0.0000e+00 0.0000e+00 0.0000e+00 [bar]
Ideal-gas pressure:   4.601061e+01 +/ 0.000000e+00 [bar]
Excess pressure:     -1.106591e+01 +/ 0.000000e+00 [bar]
Pressure:             3.494470e+01 +/ 0.000000e+00 [bar]

Total potential energy/kʙ  -2.113197e+03 (-6.797424e+03 +/- 0.000000e+00) [K]
-------------------------------------------------------------------------------
ExternalField-molecule
    Van der Waals/kʙ        0.000000e+00 ( 0.000000e+00 +/- 0.000000e+00) [K]
Framework-molecule
    Van der Waals/kʙ        0.000000e+00 ( 0.000000e+00 +/- 0.000000e+00) [K]
    Van der Waals (Tail)/kʙ 0.000000e+00 ( 0.000000e+00 +/- 0.000000e+00) [K]
    Coulombic Real/kʙ       0.000000e+00 ( 0.000000e+00 +/- 0.000000e+00) [K]
    Coulombic Fourier/kʙ    0.000000e+00 ( 0.000000e+00 +/- 0.000000e+00) [K]
Molecule-molecule
    Van der Waals/kʙ       -2.004524e+03 (-5.169293e+03 +/- 0.000000e+00) [K]
    Van der Waals (Tail)/kʙ-4.791671e+01 (-9.637995e+01 +/- 0.000000e+00) [K]
    Coulombic Real/kʙ       1.759566e+01 (-1.400435e+03 +/- 0.000000e+00) [K]
    Coulombic Fourier/kʙ   -7.835179e+01 (-1.313152e+02 +/- 0.000000e+00) [K]
    Molecule Intra/kʙ       0.000000e+00 ( 0.000000e+00 +/- 0.000000e+00) [K]

Current cycle: 1400 out of 6000
===============================================================================

Box:      32.41152   0.00000   0.00000  Average:  33.03959   0.00000   0.00000
           0.00000  32.41152   0.00000             0.00000  33.03959   0.00000
           0.00000   0.00000  32.41152             0.00000   0.00000  33.03959
Lengths:  32.41152  32.41152  32.41152  Average:  33.03959  33.03959  33.03959
Angles:   90.00000  90.00000  90.00000  Average:  90.00000  90.00000  90.00000
Rectangular boundary conditions

net charge:   0.00000000

component 0 (CO2) lambda:  0 occupancy:  1 (1.000000)
    net charge:   0.00000000 [e]

Amount of molecules per component :
-------------------------------------------------------------------------------
Component 0 (CO2)
    molecules:      3.700000e+01 molecules  (4.289722e+01 +/- 0.000000e+00)
    number density: 1.086684e-03 molec./A^3 (1.186287e-03 +/- 0.000000e+00)
    density:        7.939502e+01 kg/m^3     (8.667213e+01 +/- 0.000000e+00)

Average pressure tensor: 
-------------------------------------------------------------------------------
 3.3741e+01 -1.5168e+00  5.0872e-01 +/- 0.0000e+00 0.0000e+00 0.0000e+00 [bar]
-1.5168e+00  3.4515e+01 -9.7870e-01 +/- 0.0000e+00 0.0000e+00 0.0000e+00 [bar]
 5.0872e-01 -9.7870e-01  3.5519e+01 +/- 0.0000e+00 0.0000e+00 0.0000e+00 [bar]
Ideal-gas pressure:   4.585972e+01 +/ 0.000000e+00 [bar]
Excess pressure:     -1.126805e+01 +/ 0.000000e+00 [bar]
Pressure:             3.459167e+01 +/ 0.000000e+00 [bar]

Total potential energy/kʙ  -5.535019e+03 (-6.756095e+03 +/- 0.000000e+00) [K]
-------------------------------------------------------------------------------
ExternalField-molecule
    Van der Waals/kʙ        0.000000e+00 ( 0.000000e+00 +/- 0.000000e+00) [K]
Framework-molecule
    Van der Waals/kʙ        0.000000e+00 ( 0.000000e+00 +/- 0.000000e+00) [K]
    Van der Waals (Tail)/kʙ 0.000000e+00 ( 0.000000e+00 +/- 0.000000e+00) [K]
    Coulombic Real/kʙ       0.000000e+00 ( 0.000000e+00 +/- 0.000000e+00) [K]
    Coulombic Fourier/kʙ    0.000000e+00 ( 0.000000e+00 +/- 0.000000e+00) [K]
Molecule-molecule
    Van der Waals/kʙ       -4.612100e+03 (-5.140186e+03 +/- 0.000000e+00) [K]
    Van der Waals (Tail)/kʙ-7.466918e+01 (-9.583335e+01 +/- 0.000000e+00) [K]
    Coulombic Real/kʙ      -7.105879e+02 (-1.387922e+03 +/- 0.000000e+00) [K]
    Coulombic Fourier/kʙ   -1.376615e+02 (-1.321535e+02 +/- 0.000000e+00) [K]
    Molecule Intra/kʙ       0.000000e+00 ( 0.000000e+00 +/- 0.000000e+00) [K]

Current cycle: 1500 out of 6000
===============================================================================

Box:      32.95243   0.00000   0.00000  Average:  33.02407   0.00000   0.00000
           0.00000  32.95243   0.00000             0.00000  33.02407   0.00000
           0.00000   0.00000  32.95243             0.00000   0.00000  33.02407
[...]
    number density: 9.606824e-04 molec./A^3 (1.410197e-03 +/- 2.433056e-04)
    density:        7.018910e+01 kg/m^3     (1.030314e+02 +/- 1.777632e+01)

Average pressure tensor: 
-------------------------------------------------------------------------------
 3.9364e+01 -3.9217e-01 -4.7600e-01 +/- 5.1098e+00 1.7120e+00 1.1528e+00 [bar]
-3.9217e-01  4.0662e+01 -4.9573e-01 +/- 1.7120e+00 4.5924e+00 1.2984e+00 [bar]
-4.7600e-01 -4.9573e-01  3.9850e+01 +/- 1.1528e+00 1.2984e+00 3.3791e+00 [bar]
Ideal-gas pressure:   5.451570e+01 +/ 9.405759e+00 [bar]
Excess pressure:     -1.455733e+01 +/ 6.541318e+00 [bar]
Pressure:             3.995837e+01 +/ 4.066941e+00 [bar]

Total potential energy/kʙ  -3.012244e+03 (-1.042179e+04 +/- 4.148129e+03) [K]
-------------------------------------------------------------------------------
ExternalField-molecule
    Van der Waals/kʙ        0.000000e+00 ( 0.000000e+00 +/- 0.000000e+00) [K]
Framework-molecule
    Van der Waals/kʙ        0.000000e+00 ( 0.000000e+00 +/- 0.000000e+00) [K]
    Van der Waals (Tail)/kʙ 0.000000e+00 ( 0.000000e+00 +/- 0.000000e+00) [K]
    Coulombic Real/kʙ       0.000000e+00 ( 0.000000e+00 +/- 0.000000e+00) [K]
    Coulombic Fourier/kʙ    0.000000e+00 ( 0.000000e+00 +/- 0.000000e+00) [K]
Molecule-molecule
    Van der Waals/kʙ       -2.612111e+03 (-7.806085e+03 +/- 3.063466e+03) [K]
    Van der Waals (Tail)/kʙ-6.244305e+01 (-1.482009e+02 +/- 5.810145e+01) [K]
    Coulombic Real/kʙ      -1.266918e+02 (-2.246276e+03 +/- 9.264057e+02) [K]
    Coulombic Fourier/kʙ   -2.109983e+02 (-2.212322e+02 +/- 1.022036e+02) [K]
    Molecule Intra/kʙ       0.000000e+00 ( 0.000000e+00 +/- 0.000000e+00) [K]

Current cycle: 5800 out of 6000
===============================================================================

Box:      33.43893   0.00000   0.00000  Average:  33.50677   0.00000   0.00000
           0.00000  33.43893   0.00000             0.00000  33.50677   0.00000
           0.00000   0.00000  33.43893             0.00000   0.00000  33.50677
Lengths:  33.43893  33.43893  33.43893  Average:  33.50677  33.50677  33.50677
Angles:   90.00000  90.00000  90.00000  Average:  90.00000  90.00000  90.00000
Rectangular boundary conditions

net charge:   0.00000000

component 0 (CO2) lambda:  0 occupancy:  1 (1.000000)
    net charge:   0.00000000 [e]

Amount of molecules per component :
-------------------------------------------------------------------------------
Component 0 (CO2)
    molecules:      6.000000e+01 molecules  (5.348612e+01 +/- 1.090396e+01)
    number density: 1.604701e-03 molec./A^3 (1.410205e-03 +/- 2.363355e-04)
    density:        1.172422e+02 kg/m^3     (1.030320e+02 +/- 1.726708e+01)

Average pressure tensor: 
-------------------------------------------------------------------------------
 3.9279e+01 -2.5163e-01 -5.2210e-01 +/- 5.1476e+00 1.7710e+00 1.1957e+00 [bar]
-2.5163e-01  4.0779e+01 -5.2873e-01 +/- 1.7710e+00 4.6852e+00 1.3222e+00 [bar]
-5.2210e-01 -5.2873e-01  3.9693e+01 +/- 1.1957e+00 1.3222e+00 3.4750e+00 [bar]
Ideal-gas pressure:   5.451601e+01 +/ 9.136308e+00 [bar]
Excess pressure:     -1.459899e+01 +/ 6.279864e+00 [bar]
Pressure:             3.991702e+01 +/ 4.062804e+00 [bar]

Total potential energy/kʙ  -9.556660e+03 (-1.040502e+04 +/- 3.968117e+03) [K]
-------------------------------------------------------------------------------
ExternalField-molecule
    Van der Waals/kʙ        0.000000e+00 ( 0.000000e+00 +/- 0.000000e+00) [K]
Framework-molecule
    Van der Waals/kʙ        0.000000e+00 ( 0.000000e+00 +/- 0.000000e+00) [K]
    Van der Waals (Tail)/kʙ 0.000000e+00 ( 0.000000e+00 +/- 0.000000e+00) [K]
    Coulombic Real/kʙ       0.000000e+00 ( 0.000000e+00 +/- 0.000000e+00) [K]
    Coulombic Fourier/kʙ    0.000000e+00 ( 0.000000e+00 +/- 0.000000e+00) [K]
Molecule-molecule
    Van der Waals/kʙ       -7.054822e+03 (-7.794028e+03 +/- 2.929972e+03) [K]
    Van der Waals (Tail)/kʙ-1.788057e+02 (-1.482309e+02 +/- 5.621041e+01) [K]
    Coulombic Real/kʙ      -2.120250e+03 (-2.242275e+03 +/- 8.861453e+02) [K]
    Coulombic Fourier/kʙ   -2.027821e+02 (-2.204881e+02 +/- 9.795458e+01) [K]
    Molecule Intra/kʙ       0.000000e+00 ( 0.000000e+00 +/- 0.000000e+00) [K]

Current cycle: 5900 out of 6000
===============================================================================

Box:      33.26394   0.00000   0.00000  Average:  33.50453   0.00000   0.00000
           0.00000  33.26394   0.00000             0.00000  33.50453   0.00000
           0.00000   0.00000  33.26394             0.00000   0.00000  33.50453
Lengths:  33.26394  33.26394  33.26394  Average:  33.50453  33.50453  33.50453
Angles:   90.00000  90.00000  90.00000  Average:  90.00000  90.00000  90.00000
Rectangular boundary conditions

net charge:   0.00000000

component 0 (CO2) lambda:  0 occupancy:  1 (1.000000)
    net charge:   0.00000000 [e]

Amount of molecules per component :
-------------------------------------------------------------------------------
Component 0 (CO2)
    molecules:      4.100000e+01 molecules  (5.351686e+01 +/- 1.068884e+01)
    number density: 1.113942e-03 molec./A^3 (1.411506e-03 +/- 2.330577e-04)
    density:        8.138651e+01 kg/m^3     (1.031270e+02 +/- 1.702759e+01)

Average pressure tensor: 
-------------------------------------------------------------------------------
 3.9442e+01 -3.9978e-01 -6.6247e-01 +/- 5.0587e+00 1.7122e+00 1.3962e+00 [bar]
-3.9978e-01  4.1268e+01 -4.4839e-01 +/- 1.7122e+00 5.3969e+00 1.1626e+00 [bar]
-6.6247e-01 -4.4839e-01  3.9857e+01 +/- 1.3962e+00 1.1626e+00 3.3669e+00 [bar]
Ideal-gas pressure:   5.456629e+01 +/ 9.009593e+00 [bar]
Excess pressure:     -1.437742e+01 +/ 5.492241e+00 [bar]
Pressure:             4.018888e+01 +/ 4.149391e+00 [bar]

Total potential energy/kʙ  -6.662771e+03 (-1.039190e+04 +/- 3.837043e+03) [K]
-------------------------------------------------------------------------------
ExternalField-molecule
    Van der Waals/kʙ        0.000000e+00 ( 0.000000e+00 +/- 0.000000e+00) [K]
Framework-molecule
    Van der Waals/kʙ        0.000000e+00 ( 0.000000e+00 +/- 0.000000e+00) [K]
    Van der Waals (Tail)/kʙ 0.000000e+00 ( 0.000000e+00 +/- 0.000000e+00) [K]
    Coulombic Real/kʙ       0.000000e+00 ( 0.000000e+00 +/- 0.000000e+00) [K]
    Coulombic Fourier/kʙ    0.000000e+00 ( 0.000000e+00 +/- 0.000000e+00) [K]
Molecule-molecule
    Van der Waals/kʙ       -4.866043e+03 (-7.781713e+03 +/- 2.827699e+03) [K]
    Van der Waals (Tail)/kʙ-8.481696e+01 (-1.481690e+02 +/- 5.460860e+01) [K]
    Coulombic Real/kʙ      -1.649643e+03 (-2.241295e+03 +/- 8.605580e+02) [K]
    Coulombic Fourier/kʙ   -6.226811e+01 (-2.207241e+02 +/- 9.622709e+01) [K]
    Molecule Intra/kʙ       0.000000e+00 ( 0.000000e+00 +/- 0.000000e+00) [K]


Energy statistics             |  Energy [K]   | Recomputed [K]|  Drift [K]    |
===============================================================================
Total potential energy/kʙ     | -5.825535e+03 | -5.781785e+03 | -4.374935e+01 |
    external field VDW/kʙ     |  0.000000e+00 |  0.000000e+00 |  0.000000e+00 |
    external field Real/kʙ    |  0.000000e+00 |  0.000000e+00 |  0.000000e+00 |
    framework-molecule VDW/kʙ |  0.000000e+00 |  0.000000e+00 |  0.000000e+00 |
    framework-molecule Real/kʙ|  0.000000e+00 |  0.000000e+00 |  0.000000e+00 |
    molecule-molecule VDW/kʙ  | -4.269253e+03 | -4.225459e+03 | -4.379366e+01 |
    molecule-molecule Real/kʙ | -1.315620e+03 | -1.315664e+03 |  4.430970e-02 |
    Van der Waals (Tail)/kʙ   | -8.455022e+01 | -8.455022e+01 |  0.000000e+00 |
    Ewald Fourier/kʙ          |  2.254920e+03 |  2.254920e+03 |  1.367339e-12 |
    Ewald self/kʙ             | -7.530381e+05 | -7.530381e+05 |  0.000000e+00 |
    Ewald exclusion/kʙ        |  7.506270e+05 |  7.506270e+05 |  0.000000e+00 |
    intra VDW/kʙ              |  0.000000e+00 |  0.000000e+00 |  0.000000e+00 |
    intra Coulombic/kʙ        |  0.000000e+00 |  0.000000e+00 |  0.000000e+00 |
    polarization/kʙ           |  0.000000e+00 |  0.000000e+00 |  0.000000e+00 |
    dU/dlambda VDW/kʙ         |  0.000000e+00 |  0.000000e+00 |  0.000000e+00 |
    dU/dlambda Real/kʙ        |  0.000000e+00 |  0.000000e+00 |  0.000000e+00 |
    dU/dlambda Ewald/kʙ       |  0.000000e+00 |  0.000000e+00 |  0.000000e+00 |
-------------------------------------------------------------------------------


Monte-Carlo moves statistics
===============================================================================

    Gibbs volume         all:                2892
    Gibbs volume         total:              5844
    Gibbs volume         constructed:        5844
    Gibbs volume         accepted:           4590
    Gibbs volume         fraction:       0.785421
    Gibbs volume         max-change:     0.037500

Component 0 [CO2]
    Reinsertion (CBMC)   all:              149033
    Reinsertion (CBMC)   total:            149033
    Reinsertion (CBMC)   constructed:      149033
    Reinsertion (CBMC)   accepted:          90769
    Reinsertion (CBMC)   fraction:       0.609053
    Reinsertion (CBMC)   max-change:     0.000000

    Gibbs swap (CBMC)    all:              298968
    Gibbs swap (CBMC)    total:            598087
    Gibbs swap (CBMC)    constructed:      592184
    Gibbs swap (CBMC)    accepted:         115287
    Gibbs swap (CBMC)    fraction:       0.192760
    Gibbs swap (CBMC)    max-change:     0.000000

    Translation          all:              149384
    Translation          total:             50245      49816      49323
    Translation          constructed:       50120      49694      49171
    Translation          accepted:          39488      39246      38614
    Translation          fraction:       0.785909   0.787819   0.782880
    Translation          max-change:     1.500000   1.500000   1.500000

    Rotation             all:              149831
    Rotation             total:             50438      49333      50060
    Rotation             constructed:       50409      49300      50020
    Rotation             accepted:          39512      38794      39230
    Rotation             fraction:       0.783378   0.786370   0.783660
    Rotation             max-change:     1.500000   1.500000   1.500000



Production run counting of the MC moves summed over systems and components
===============================================================================

Reinsertion (CBMC)                   298382 (19.8921 [%])
Gibbs volume                           5844 (0.3896 [%])
Gibbs swap (CBMC)                    598087 (39.8725 [%])
Translation                          298915 (19.9277 [%])
Rotation                             298772 (19.9181 [%])

Production count MC-steps:          1500000 [-]
               All summed:          1500000 [-]
               difference:                0 [-]


Production run CPU timings of the MC moves
===============================================================================

Component 0 CO2

Rotation                              5.181780 [s]
    Ewald                             3.423057 [s]
    ExternalField-Molecule            0.005162 [s]
    Framework-Molecule                0.005358 [s]
    Molecule-Molecule                 1.412446 [s]
    Overhead                          0.335757 [s]

Reinsertion (CBMC)                   17.749844 [s]
    Ewald                             3.446159 [s]
    NonEwald                         14.050916 [s]
    Overhead                          0.252769 [s]

Translation                           5.165014 [s]
    Ewald                             3.402102 [s]
    ExternalField-Molecule            0.005055 [s]
    Framework-Molecule                0.009429 [s]
    Molecule-Molecule                 1.418378 [s]
    Overhead                          0.330050 [s]



Gibbs swap (CBMC)                   118.063808 [s]
    Ewald                            13.300711 [s]
    NonEwald                        103.168614 [s]
    Tail                              0.961194 [s]

Gibbs volume                         12.196399 [s]
    Ewald                             3.886822 [s]
    NonEwald                          7.892004 [s]
    Tail                              0.328347 [s]

Property sampling                     0.245898 [s]
Energy/pressure sampling:             0.735407 [s]


Production run CPU timings of the MC moves summed over systems and components
===============================================================================


Translation                          17.836057 [s]
    Ewald                             8.219746 [s]
    ExternalField-Molecule            0.010004 [s]
    Framework-Molecule                0.018952 [s]
    Molecule-Molecule                 8.940719 [s]
    Overhead                          0.646636 [s]

Rotation                             17.760277 [s]
    Ewald                             8.219502 [s]
    ExternalField-Molecule            0.010215 [s]
    Framework-Molecule                0.010731 [s]
    Molecule-Molecule                 8.867260 [s]
    Overhead                          0.652569 [s]

Reinsertion (CBMC)                   81.190105 [s]
    Ewald                             8.226536 [s]
    NonEwald                         72.585815 [s]
    Overhead                          0.377754 [s]

Gibbs volume                         24.636839 [s]
    Ewald                             7.834131 [s]
    NonEwald                         15.957758 [s]
    Tail                              0.663209 [s]
    Overhead                          0.181741 [s]

Gibbs swap (CBMC)                   214.331894 [s]
    Ewald                            26.311435 [s]
    NonEwald                        185.006119 [s]
    Tail                              1.781457 [s]
    Overhead                          1.232883 [s]

Property sampling:                    0.478549 [s]
Energy/pressure sampling:             6.250095 [s]

Production simulation time:         363.362303 [s]
                All summed:         362.483816 [s]
                  Overhead:           0.878487 [s]


Initalization simulation time:      112.696978 [s]
Equilibration simulation time:        0.000000 [s]
Production simulation time:         363.362303 [s]
Total simulation time:              476.059281 [s]


Energy averages and statistics:
===============================================================================

Framework-molecule energy:
-------------------------------------------------------------------------------



Framework-molecule energy contributions per energy type:
-------------------------------------------------------------------------------



Inter-molecular energy:
-------------------------------------------------------------------------------

    Inter-molecular energy/kʙ 0-0 [CO2-CO2]:
    ---------------------------------------------------------------------------
        Block[  0] -6.981150e+03
        Block[  1] -8.548305e+03
        Block[  2] -1.380525e+04
        Block[  3] -9.269033e+03
        Block[  4] -1.320778e+04
        -----------------------------------------------------------------------
        Average  -1.036230e+04 +/-  3.717592e+03 [K]



Inter-molecular energy contributions per energy type:
-------------------------------------------------------------------------------

    Van der Waals energy/kʙ 0-0 [CO2-CO2]:
    ---------------------------------------------------------------------------
        Block[  0] -5.283850e+03
        Block[  1] -6.458745e+03
        Block[  2] -1.030338e+04
        Block[  3] -6.890219e+03
        Block[  4] -9.875082e+03
        -----------------------------------------------------------------------
        Average  -7.762254e+03 +/-  2.742725e+03 [K]

    VDW Tail-Correction energy/kʙ 0-0 [CO2-CO2]:
    ---------------------------------------------------------------------------
        Block[  0] -9.899218e+01
        Block[  1] -1.220166e+02
        Block[  2] -1.967287e+02
        Block[  3] -1.330513e+02
        Block[  4] -1.874501e+02
        -----------------------------------------------------------------------
        Average  -1.476478e+02 +/-  5.278249e+01 [K]

    Coulomb Real energy/kʙ 0-0 [CO2-CO2]:
    ---------------------------------------------------------------------------
        Block[  0] -1.457359e+03
        Block[  1] -1.804655e+03
        Block[  2] -2.991413e+03
        Block[  3] -2.047057e+03
        Block[  4] -2.860213e+03
        -----------------------------------------------------------------------
        Average  -2.232139e+03 +/-  8.300788e+02 [K]

    Coulomb Fourier energy/kʙ 0-0 [CO2-CO2]:
    ---------------------------------------------------------------------------
        Block[  0] -1.409481e+02
        Block[  1] -1.628891e+02
        Block[  2] -3.137292e+02
        Block[  3] -1.987051e+02
        Block[  4] -2.850346e+02
        -----------------------------------------------------------------------
        Average  -2.202612e+02 +/-  9.409509e+01 [K]


Total energy/kʙ
-------------------------------------------------------------------------------
    Block[  0] -6.981150e+03
    Block[  1] -8.548305e+03
    Block[  2] -1.380525e+04
    Block[  3] -9.269033e+03
    Block[  4] -1.320778e+04
    ---------------------------------------------------------------------------
    Average  -1.036230e+04 +/-  3.717592e+03 [K]

Pressure averages and statistics:
===============================================================================

Average pressure tensor: 
-------------------------------------------------------------------------------
 3.9442e+01 -3.7280e-01 -7.2393e-01 +/- 5.0551e+00 1.7129e+00 1.4686e+00 [bar]
-3.7280e-01  4.0941e+01 -4.3637e-01 +/- 1.7129e+00 4.7566e+00 1.1347e+00 [bar]
-7.2393e-01 -4.3637e-01  3.9880e+01 +/- 1.4686e+00 1.1347e+00 3.3579e+00 [bar]

    Block[  0]  4.648244e+06
    Block[  1]  5.042282e+06
    Block[  2]  6.305781e+06
    Block[  3]  5.188795e+06
    Block[  4]  6.058123e+06
    ---------------------------------------------------------------------------
    Ideal gas pressure   5.448645e+06 +/-  5.259282e-02 [Pa]
                         5.448645e+01 +/-  8.733249e+00 [bar]


    Block[  0] -1.100712e+06
    Block[  1] -1.080392e+06
    Block[  2] -1.834413e+06
    Block[  3] -1.207434e+06
    Block[  4] -1.976253e+06
    ---------------------------------------------------------------------------
    Excess pressure  -1.439841e+06 +/-  5.345691e+05 [Pa]
                     -1.439841e+01 +/-  5.345691e+00 [bar]


    Block[  0]  3.547532e+06
    Block[  1]  3.961889e+06
    Block[  2]  4.471368e+06
    Block[  3]  3.981361e+06
    Block[  4]  4.081871e+06
    ---------------------------------------------------------------------------
    Pressure average   4.008804e+06 +/-  4.094154e+05 [Pa]
                       4.008804e+01 +/-  4.094154e+00 [bar]


Enthalpy of adsorption
===============================================================================

Component 0 [CO2]
-------------------------------------------------------------------------------
    Block[  0] -5.786927e+02
    Block[  1] -6.157325e+02
    Block[  2] -7.096104e+02
    Block[  3] -6.169172e+02
    Block[  4] -6.731499e+02
    ---------------------------------------------------------------------------
    Enthalpy of adsorption: -6.388205e+02 +/-  6.456177e+01 [K]
                            -5.311451e+00 +/-  5.367966e-01 [kJ/mol]
    Warning: need to subtract the ideal-gas energy.


Densities
===============================================================================

Component 0 (CO2)
    Block[  0] 43.695
    Block[  1] 48.54166666666667
    Block[  2] 63.25333333333334
    Block[  3] 50.7475
    Block[  4] 60.86000000000001
    -----------------------------------------------------------------------
    Density average   5.341950e+01 +/-  1.034156e+01 [molecules]
    Density average   1.409441e-03 +/-  2.259093e-04 [molec/A^3]
    Density average   1.029761e+02 +/-  1.650532e+01 [kg.m⁻³]

