Compiler and run-time data
===============================================================================
RASPA 3.0.4

Random seed: 2033382345

Compiled as a 64-bits application
Compiler: gcc Clang 18.1.8
Compile Date = Mar 15 2025, Compile Time = 19:38:51

2025-06-03 15:51:59.370204
Simulation started on Tue, Jun 03
The start time was 15:51:00

Hostname:    1NNMVV3
OS type:     Linux on x86_64
OS release:  5.15.167.4-microsoft-standard-WSL2
OS version:  #1 SMP Tue Nov 5 00:21:55 UTC 2024


Mutual consistent basic set of units:
===============================================================================

Unit of temperature: 1 [K]
Unit of length:      1e-10 [m]
Unit of time:        1e-12 [s]
Unit of mass:        1.6605402e-27 [kg]
Unit of charge:      1.60217733e-19 [C/particle]


Boltzmann constant (internal units):          0.8314464919307584 [-]
represents conversion from energy (internal units) to temperature (in Kelvin)

Derived units and their conversion factors:
===============================================================================

Unit of energy:                           1.6605402000000002e-23 [J]
Unit of energy:                           10.000008872307538 [J.mol⁻¹]
Unit of velocity:                         100 [m.s⁻¹]
Unit of force:                            1.6605402000000002e-13 [N]
Unit of diffusion:                        1.0000000000000002e-08 [m².s⁻¹]
Unit of acceleration:                     1.0000000000000002e-08 [m².s⁻¹]
Unit of torque:                           1.6605402000000002e-23 [N.m]
Unit of pressure:                         16605402 [Pa]
Unit of volume:                           1e-30 [m³]
Unit of density:                          1660.5402 [kg.m⁻³]
Unit of dynamic viscosity:                1.6605401999999997e-05 [N.s.m⁻²]
Unit of enthalpy:                         1.6605402000000002e-23 [J]
Unit of polarizability:                   1.5458657349975198e-35 [-]
Unit of Coulomb potential:                167101.08000665612 [K]
Unit of dielectric constant:              1.5458657349975193e-05 [s².C².kg⁻¹.m⁻³]
Unit of dipole moment:                    1.60217733e-29 [C.m]
Unit of Debye:                            4.803206799099162 [C.m]
Unit of electric potential:               0.00010364272224473431 [V]
Unit of electric field:                   1036427.222447343 [V.m⁻¹]
Unit of isothermal compressibility:       6.02213665167516e-08 [Pa⁻¹]
Unit of heat capacity:                    10.000008872307538 [J.mol⁻¹.K⁻¹]
Unit of volumetric expansion coefficient: 1 [K⁻¹]


Internal conversion factors:
===============================================================================

Energy (internal units) to Kelvin:      1.202724284692786 [-]
Kelvin to energy (internal units):      0.8314457542157567 [-]


System definitions
===============================================================================

Temperature:          280 [K]
Beta:                 0.004295440062697377 [-]
Pressure:             0 [Pa]
Helium void fraction: 1 [-]

Box:      30.00000   0.00000   0.00000
           0.00000  30.00000   0.00000
           0.00000   0.00000  30.00000
Lengths:  30.00000  30.00000  30.00000
Angles:   90.00000  90.00000  90.00000
Rectangular boundary conditions



Property measurement settings
===============================================================================




Pseudo-atoms
===============================================================================

  0 - C_co2    framework-atom: false
  1 - O_co2    framework-atom: false

  0 - C_co2    mass: 12.00000, charge:  0.70000
  1 - O_co2    mass: 15.99940, charge: -0.35000

  0 - C_co2    polarizability:  0.00000
  1 - O_co2    polarizability:  0.00000

  0 - J. J. Potoff et al., AIChE J. 2001, 47, 1676–1682.
  1 - J. J. Potoff et al., AIChE J. 2001, 47, 1676–1682.

Force field status
===============================================================================

Cutoff Framework-Molecule VDW:  11.00000 [Å]
Cutoff Molecule-Molecule VDW:   11.00000 [Å]
Cutoff Coulomb:                 11.00000 [Å]

Overlap-criteria VDW:           1.000000e+05 [K]

C_co2    - C_co2    Lennard-Jones p₀/kʙ:  27.00000 [K], p₁:  2.80000 [Å]
                                  shift:   0.00000 [K], tailcorrections: true
C_co2    - O_co2    Lennard-Jones p₀/kʙ:  46.18441 [K], p₁:  2.92500 [Å]
                                  shift:   0.00000 [K], tailcorrections: true
O_co2    - O_co2    Lennard-Jones p₀/kʙ:  79.00000 [K], p₁:  3.05000 [Å]
                                  shift:   0.00000 [K], tailcorrections: true

Ewald precision: 1e-06
Ewald alpha: 0.2903408740940883
Ewald k-vectors: 9 9 9


Component definitions
===============================================================================

Component 0 [CO2]

    Type: Adsorbate

    Critical temperature:  304.1282 [K]
    Critical pressure:     7377300 [Pa]
    Acentric factor:       0.22394 [-]

    Mol-fraction:                 1 [-]
    Swappable:                   true

    Mass:                         43.9988 [-]
    Fugacity coefficient:         -nan [-]
    Bulk fluid density:           0 [-]
    Compressibility:              1 [-]
    Excess molecules:             0 [-]

    Number Of Atoms:    3
    CBMC starting bead: 0
      0: O_co2  position  0.00000 -0.00000  1.16000, charge -0.35000
      1: C_co2  position  0.00000 -0.00000  0.00000, charge  0.70000
      2: O_co2  position  0.00000 -0.00000 -1.16000, charge -0.35000
    Diagonalized inertia-vector:      43.05758528 43.05758528 0.00000000
    Translational degrees of freedom: 3
    Rotational degrees of freedom:    2
    Shape of the molecule is: 'Linear'
    Net-charge:        0.00000000 [e]

    Move probabilities:
    Translation:                   0.199203 [-]
    Random translation:            0.000000 [-]
    Rotation:                      0.199203 [-]
    Random rotation:               0.000000 [-]
    Volume change:                 0.000000 [-]
    Reinsertion (CBMC):            0.199203 [-]
    Identity change (CBMC):        0.000000 [-]
    Swap:                          0.000000 [-]
    Swap (CBMC):                   0.000000 [-]
    Swap (CFCMC):                  0.000000 [-]
    Swap (CB/CFCMC):               0.000000 [-]
    Gibbs volume:                  0.003984 [-]
    Gibbs swap (CBMC):             0.398406 [-]
    Gibbs swap (CFCMC):            0.000000 [-]
    Widom:                         0.000000 [-]
    Widom (CFCMC):                 0.000000 [-]
    Widom (CB/CFCMC):              0.000000 [-]
    Parallel tempering:            0.000000 [-]
    Hybrid MC:                     0.000000 [-]

    number of blocking-pockets: 0

    number of bonds: 0





Number of pseudo-atoms
===============================================================================

Component   0 (CO2)
-------------------------------------------------------------------------------
    index   0 (C_co2): 210 atoms
    index   1 (O_co2): 420 atoms

Total number of pseudo-atoms:
-------------------------------------------------------------------------------
    index   0 (C_co2): 210 atoms
    index   1 (O_co2): 420 atoms




Energy status Recomputed from scratch
===============================================================================

Total potential energy/kʙ       -7.545760e+04 [K]
    external field VDW/kʙ        0.000000e+00 [K]
    external field Real/kʙ       0.000000e+00 [K]
    framework-molecule VDW/kʙ    0.000000e+00 [K]
    framework-molecule Real/kʙ   0.000000e+00 [K]
    molecule-molecule VDW/kʙ    -5.630461e+04 [K]
    molecule-molecule Real/kʙ   -1.278636e+04 [K]
    Van der Waals (Tail)/kʙ     -3.937786e+03 [K]
    Ewald Fourier/kʙ             1.663191e+04 [K]
    Ewald self/kʙ               -4.224926e+06 [K]
    Ewald exclusion/kʙ           4.205866e+06 [K]
    intra VDW/kʙ                 0.000000e+00 [K]
    intra Coulombic/kʙ           0.000000e+00 [K]
    polarization/kʙ              0.000000e+00 [K]
    dU/dlambda VDW/kʙ            0.000000e+00 [K]
    dU/dlambda Real/kʙ           0.000000e+00 [K]
    dU/dlambda Ewald/kʙ          0.000000e+00 [K]





Initialization: Current cycle: 0 out of 2000
===============================================================================

Box:      30.00000   0.00000   0.00000
           0.00000  30.00000   0.00000
           0.00000   0.00000  30.00000
Lengths:  30.00000  30.00000  30.00000
Angles:   90.00000  90.00000  90.00000
Rectangular boundary conditions

net charge:   0.00000000

component   0 (CO2) lambda:  0 occupancy:  0 (0.000000)
    net charge:   0.00000000 [e]

Amount of molecules per component :
-------------------------------------------------------------------------------
Component 0 (CO2)
    molecules:         2.110000e+02 molecules
    number density:    7.814815e-03 molec/A^3
    density:           5.709637e+02 kg/m^3

Total potential energy/kʙ       -1.383993e+05 [K]
-------------------------------------------------------------------------------
    external field VDW/kʙ        0.000000e+00 [K]
    external field Real/kʙ       0.000000e+00 [K]
    framework-molecule VDW/kʙ    0.000000e+00 [K]
    framework-molecule Real/kʙ   0.000000e+00 [K]
    molecule-molecule VDW/kʙ    -1.116773e+05 [K]
    molecule-molecule Real/kʙ   -1.913756e+04 [K]
    Van der Waals (Tail)/kʙ     -3.975378e+03 [K]
    Ewald Fourier/kʙ             1.554240e+04 [K]
    Ewald self/kʙ               -4.245045e+06 [K]
    Ewald exclusion/kʙ           4.225893e+06 [K]
    intra VDW/kʙ                 0.000000e+00 [K]
    intra Coulombic/kʙ           0.000000e+00 [K]
    polarization/kʙ              0.000000e+00 [K]
    dU/dlambda VDW/kʙ            0.000000e+00 [K]
    dU/dlambda Real/kʙ           0.000000e+00 [K]
    dU/dlambda Ewald/kʙ          0.000000e+00 [K]


Initialization: Current cycle: 100 out of 2000
===============================================================================

Box:      30.24559   0.00000   0.00000
           0.00000  30.24559   0.00000
           0.00000   0.00000  30.24559
Lengths:  30.24559  30.24559  30.24559
Angles:   90.00000  90.00000  90.00000
Rectangular boundary conditions

net charge:   0.00000000

component   0 (CO2) lambda:  0 occupancy:  0 (0.000000)
    net charge:   0.00000000 [e]

Amount of molecules per component :
-------------------------------------------------------------------------------
Component 0 (CO2)
    molecules:         2.150000e+02 molecules
    number density:    7.770562e-03 molec/A^3
    density:           5.677305e+02 kg/m^3

Total potential energy/kʙ       -1.830416e+05 [K]
-------------------------------------------------------------------------------
    external field VDW/kʙ        0.000000e+00 [K]
    external field Real/kʙ       0.000000e+00 [K]
    framework-molecule VDW/kʙ    0.000000e+00 [K]
    framework-molecule Real/kʙ   0.000000e+00 [K]
    molecule-molecule VDW/kʙ    -1.348161e+05 [K]
    molecule-molecule Real/kʙ   -3.775560e+04 [K]
    Van der Waals (Tail)/kʙ     -4.027803e+03 [K]
    Ewald Fourier/kʙ             1.307253e+04 [K]
    Ewald self/kʙ               -4.325520e+06 [K]
    Ewald exclusion/kʙ           4.306005e+06 [K]
    intra VDW/kʙ                 0.000000e+00 [K]
    intra Coulombic/kʙ           0.000000e+00 [K]
    polarization/kʙ              0.000000e+00 [K]
    dU/dlambda VDW/kʙ            0.000000e+00 [K]
    dU/dlambda Real/kʙ           0.000000e+00 [K]
    dU/dlambda Ewald/kʙ          0.000000e+00 [K]


Initialization: Current cycle: 200 out of 2000
===============================================================================

Box:      30.64718   0.00000   0.00000
           0.00000  30.64718   0.00000
           0.00000   0.00000  30.64718
Lengths:  30.64718  30.64718  30.64718
Angles:   90.00000  90.00000  90.00000
Rectangular boundary conditions

net charge:   0.00000000

component   0 (CO2) lambda:  0 occupancy:  0 (0.000000)
    net charge:   0.00000000 [e]

Amount of molecules per component :
-------------------------------------------------------------------------------
Component 0 (CO2)
    molecules:         2.220000e+02 molecules
    number density:    7.712259e-03 molec/A^3
    density:           5.634708e+02 kg/m^3

Total potential energy/kʙ       -1.843475e+05 [K]
-------------------------------------------------------------------------------
    external field VDW/kʙ        0.000000e+00 [K]
    external field Real/kʙ       0.000000e+00 [K]
    framework-molecule VDW/kʙ    0.000000e+00 [K]
    framework-molecule Real/kʙ   0.000000e+00 [K]
    molecule-molecule VDW/kʙ    -1.390303e+05 [K]
    molecule-molecule Real/kʙ   -3.420301e+04 [K]
    Van der Waals (Tail)/kʙ     -4.127736e+03 [K]
    Ewald Fourier/kʙ             1.316344e+04 [K]
    Ewald self/kʙ               -4.466351e+06 [K]
    Ewald exclusion/kʙ           4.446201e+06 [K]
    intra VDW/kʙ                 0.000000e+00 [K]
    intra Coulombic/kʙ           0.000000e+00 [K]
    polarization/kʙ              0.000000e+00 [K]
    dU/dlambda VDW/kʙ            0.000000e+00 [K]
    dU/dlambda Real/kʙ           0.000000e+00 [K]
    dU/dlambda Ewald/kʙ          0.000000e+00 [K]


Initialization: Current cycle: 300 out of 2000
===============================================================================

Box:      29.82923   0.00000   0.00000
           0.00000  29.82923   0.00000
           0.00000   0.00000  29.82923
Lengths:  29.82923  29.82923  29.82923
Angles:   90.00000  90.00000  90.00000
Rectangular boundary conditions

net charge:   0.00000000

component   0 (CO2) lambda:  0 occupancy:  0 (0.000000)
    net charge:   0.00000000 [e]

Amount of molecules per component :
-------------------------------------------------------------------------------
Component 0 (CO2)
    molecules:         2.200000e+02 molecules
    number density:    8.288894e-03 molec/A^3
    density:           6.056008e+02 kg/m^3

Total potential energy/kʙ       -2.042437e+05 [K]
-------------------------------------------------------------------------------
    external field VDW/kʙ        0.000000e+00 [K]
    external field Real/kʙ       0.000000e+00 [K]
    framework-molecule VDW/kʙ    0.000000e+00 [K]
    framework-molecule Real/kʙ   0.000000e+00 [K]
    molecule-molecule VDW/kʙ    -1.521462e+05 [K]
    molecule-molecule Real/kʙ   -4.175569e+04 [K]
    Van der Waals (Tail)/kʙ     -4.396394e+03 [K]
    Ewald Fourier/kʙ             1.402294e+04 [K]
    Ewald self/kʙ               -4.426113e+06 [K]
    Ewald exclusion/kʙ           4.406145e+06 [K]
    intra VDW/kʙ                 0.000000e+00 [K]
    intra Coulombic/kʙ           0.000000e+00 [K]
    polarization/kʙ              0.000000e+00 [K]
    dU/dlambda VDW/kʙ            0.000000e+00 [K]
    dU/dlambda Real/kʙ           0.000000e+00 [K]
    dU/dlambda Ewald/kʙ          0.000000e+00 [K]


Initialization: Current cycle: 400 out of 2000
===============================================================================

Box:      29.58282   0.00000   0.00000
           0.00000  29.58282   0.00000
           0.00000   0.00000  29.58282
Lengths:  29.58282  29.58282  29.58282
Angles:   90.00000  90.00000  90.00000
Rectangular boundary conditions

net charge:   0.00000000

component   0 (CO2) lambda:  0 occupancy:  0 (0.000000)
    net charge:   0.00000000 [e]

Amount of molecules per component :
-------------------------------------------------------------------------------
Component 0 (CO2)
    molecules:         2.280000e+02 molecules
    number density:    8.806763e-03 molec/A^3
    density:           6.434372e+02 kg/m^3

Total potential energy/kʙ       -2.078046e+05 [K]
-------------------------------------------------------------------------------
    external field VDW/kʙ        0.000000e+00 [K]
    external field Real/kʙ       0.000000e+00 [K]
    framework-molecule VDW/kʙ    0.000000e+00 [K]
    framework-molecule Real/kʙ   0.000000e+00 [K]
    molecule-molecule VDW/kʙ    -1.571926e+05 [K]
    molecule-molecule Real/kʙ   -3.957207e+04 [K]
    Van der Waals (Tail)/kʙ     -4.840926e+03 [K]
    Ewald Fourier/kʙ             1.449551e+04 [K]
    Ewald self/kʙ               -4.587063e+06 [K]
    Ewald exclusion/kʙ           4.566368e+06 [K]
    intra VDW/kʙ                 0.000000e+00 [K]
    intra Coulombic/kʙ           0.000000e+00 [K]
    polarization/kʙ              0.000000e+00 [K]
    dU/dlambda VDW/kʙ            0.000000e+00 [K]
    dU/dlambda Real/kʙ           0.000000e+00 [K]
    dU/dlambda Ewald/kʙ          0.000000e+00 [K]


Initialization: Current cycle: 500 out of 2000
===============================================================================

Box:      28.36702   0.00000   0.00000
           0.00000  28.36702   0.00000
           0.00000   0.00000  28.36702
Lengths:  28.36702  28.36702  28.36702
Angles:   90.00000  90.00000  90.00000
Rectangular boundary conditions

net charge:   0.00000000

component   0 (CO2) lambda:  0 occupancy:  0 (0.000000)
    net charge:   0.00000000 [e]

Amount of molecules per component :
-------------------------------------------------------------------------------
Component 0 (CO2)
    molecules:         2.180000e+02 molecules
    number density:    9.550268e-03 molec/A^3
    density:           6.977589e+02 kg/m^3

Total potential energy/kʙ       -2.228681e+05 [K]
-------------------------------------------------------------------------------
    external field VDW/kʙ        0.000000e+00 [K]
    external field Real/kʙ       0.000000e+00 [K]
    framework-molecule VDW/kʙ    0.000000e+00 [K]
    framework-molecule Real/kʙ   0.000000e+00 [K]
    molecule-molecule VDW/kʙ    -1.663448e+05 [K]
    molecule-molecule Real/kʙ   -4.406893e+04 [K]
    Van der Waals (Tail)/kʙ     -5.019372e+03 [K]
    Ewald Fourier/kʙ             1.235192e+04 [K]
    Ewald self/kʙ               -4.385876e+06 [K]
    Ewald exclusion/kʙ           4.366089e+06 [K]
    intra VDW/kʙ                 0.000000e+00 [K]
    intra Coulombic/kʙ           0.000000e+00 [K]
    polarization/kʙ              0.000000e+00 [K]
    dU/dlambda VDW/kʙ            0.000000e+00 [K]
    dU/dlambda Real/kʙ           0.000000e+00 [K]
    dU/dlambda Ewald/kʙ          0.000000e+00 [K]


Initialization: Current cycle: 600 out of 2000
===============================================================================

Box:      27.08025   0.00000   0.00000
           0.00000  27.08025   0.00000
           0.00000   0.00000  27.08025
Lengths:  27.08025  27.08025  27.08025
Angles:   90.00000  90.00000  90.00000
Rectangular boundary conditions

net charge:   0.00000000

component   0 (CO2) lambda:  0 occupancy:  0 (0.000000)
    net charge:   0.00000000 [e]

Amount of molecules per component :
-------------------------------------------------------------------------------
Component 0 (CO2)
    molecules:         1.930000e+02 molecules
    number density:    9.718497e-03 molec/A^3
    density:           7.100500e+02 kg/m^3

Total potential energy/kʙ       -1.995059e+05 [K]
-------------------------------------------------------------------------------
    external field VDW/kʙ        0.000000e+00 [K]
    external field Real/kʙ       0.000000e+00 [K]
    framework-molecule VDW/kʙ    0.000000e+00 [K]
    framework-molecule Real/kʙ   0.000000e+00 [K]
    molecule-molecule VDW/kʙ    -1.464945e+05 [K]
    molecule-molecule Real/kʙ   -4.186623e+04 [K]
    Van der Waals (Tail)/kʙ     -4.522033e+03 [K]
    Ewald Fourier/kʙ             1.089460e+04 [K]
    Ewald self/kʙ               -3.882908e+06 [K]
    Ewald exclusion/kʙ           3.865391e+06 [K]
    intra VDW/kʙ                 0.000000e+00 [K]
    intra Coulombic/kʙ           0.000000e+00 [K]
    polarization/kʙ              0.000000e+00 [K]
    dU/dlambda VDW/kʙ            0.000000e+00 [K]
    dU/dlambda Real/kʙ           0.000000e+00 [K]
    dU/dlambda Ewald/kʙ          0.000000e+00 [K]


Initialization: Current cycle: 700 out of 2000
===============================================================================

Box:      25.83541   0.00000   0.00000
           0.00000  25.83541   0.00000
           0.00000   0.00000  25.83541
Lengths:  25.83541  25.83541  25.83541
Angles:   90.00000  90.00000  90.00000
Rectangular boundary conditions

net charge:   0.00000000

component   0 (CO2) lambda:  0 occupancy:  0 (0.000000)
    net charge:   0.00000000 [e]

Amount of molecules per component :
-------------------------------------------------------------------------------
Component 0 (CO2)
    molecules:         1.960000e+02 molecules
    number density:    1.136606e-02 molec/A^3
    density:           8.304238e+02 kg/m^3

Total potential energy/kʙ       -2.317374e+05 [K]
-------------------------------------------------------------------------------
    external field VDW/kʙ        0.000000e+00 [K]
    external field Real/kʙ       0.000000e+00 [K]
    framework-molecule VDW/kʙ    0.000000e+00 [K]
    framework-molecule Real/kʙ   0.000000e+00 [K]
    molecule-molecule VDW/kʙ    -1.743969e+05 [K]
    molecule-molecule Real/kʙ   -4.450984e+04 [K]
    Van der Waals (Tail)/kʙ     -5.370854e+03 [K]
    Ewald Fourier/kʙ             1.033016e+04 [K]
    Ewald self/kʙ               -3.943265e+06 [K]
    Ewald exclusion/kʙ           3.925474e+06 [K]
    intra VDW/kʙ                 0.000000e+00 [K]
    intra Coulombic/kʙ           0.000000e+00 [K]
    polarization/kʙ              0.000000e+00 [K]
    dU/dlambda VDW/kʙ            0.000000e+00 [K]
    dU/dlambda Real/kʙ           0.000000e+00 [K]
    dU/dlambda Ewald/kʙ          0.000000e+00 [K]


Initialization: Current cycle: 800 out of 2000
===============================================================================

Box:      26.00361   0.00000   0.00000
           0.00000  26.00361   0.00000
           0.00000   0.00000  26.00361
Lengths:  26.00361  26.00361  26.00361
Angles:   90.00000  90.00000  90.00000
Rectangular boundary conditions

net charge:   0.00000000

component   0 (CO2) lambda:  0 occupancy:  0 (0.000000)
    net charge:   0.00000000 [e]

Amount of molecules per component :
-------------------------------------------------------------------------------
Component 0 (CO2)
    molecules:         2.020000e+02 molecules
    number density:    1.148816e-02 molec/A^3
    density:           8.393450e+02 kg/m^3

Total potential energy/kʙ       -2.371882e+05 [K]
-------------------------------------------------------------------------------
    external field VDW/kʙ        0.000000e+00 [K]
    external field Real/kʙ       0.000000e+00 [K]
    framework-molecule VDW/kʙ    0.000000e+00 [K]
    framework-molecule Real/kʙ   0.000000e+00 [K]
    molecule-molecule VDW/kʙ    -1.732095e+05 [K]
    molecule-molecule Real/kʙ   -5.028949e+04 [K]
    Van der Waals (Tail)/kʙ     -5.594733e+03 [K]
    Ewald Fourier/kʙ             1.024019e+04 [K]
    Ewald self/kʙ               -4.063977e+06 [K]
    Ewald exclusion/kʙ           4.045642e+06 [K]
    intra VDW/kʙ                 0.000000e+00 [K]
    intra Coulombic/kʙ           0.000000e+00 [K]
    polarization/kʙ              0.000000e+00 [K]
    dU/dlambda VDW/kʙ            0.000000e+00 [K]
    dU/dlambda Real/kʙ           0.000000e+00 [K]
    dU/dlambda Ewald/kʙ          0.000000e+00 [K]


Initialization: Current cycle: 900 out of 2000
===============================================================================

Box:      26.17128   0.00000   0.00000
           0.00000  26.17128   0.00000
           0.00000   0.00000  26.17128
Lengths:  26.17128  26.17128  26.17128
Angles:   90.00000  90.00000  90.00000
Rectangular boundary conditions

net charge:   0.00000000

component   0 (CO2) lambda:  0 occupancy:  0 (0.000000)
    net charge:   0.00000000 [e]

Amount of molecules per component :
-------------------------------------------------------------------------------
Component 0 (CO2)
    molecules:         2.190000e+02 molecules
    number density:    1.221713e-02 molec/A^3
    density:           8.926041e+02 kg/m^3

Total potential energy/kʙ       -2.747799e+05 [K]
-------------------------------------------------------------------------------
    external field VDW/kʙ        0.000000e+00 [K]
    external field Real/kʙ       0.000000e+00 [K]
    framework-molecule VDW/kʙ    0.000000e+00 [K]
    framework-molecule Real/kʙ   0.000000e+00 [K]
    molecule-molecule VDW/kʙ    -2.019180e+05 [K]
    molecule-molecule Real/kʙ   -5.737902e+04 [K]
    Van der Waals (Tail)/kʙ     -6.450456e+03 [K]
    Ewald Fourier/kʙ             1.084517e+04 [K]
    Ewald self/kʙ               -4.405995e+06 [K]
    Ewald exclusion/kʙ           4.386117e+06 [K]
    intra VDW/kʙ                 0.000000e+00 [K]
    intra Coulombic/kʙ           0.000000e+00 [K]
    polarization/kʙ              0.000000e+00 [K]
    dU/dlambda VDW/kʙ            0.000000e+00 [K]
    dU/dlambda Real/kʙ           0.000000e+00 [K]
    dU/dlambda Ewald/kʙ          0.000000e+00 [K]


Initialization: Current cycle: 1000 out of 2000
===============================================================================

Box:      26.10780   0.00000   0.00000
           0.00000  26.10780   0.00000
           0.00000   0.00000  26.10780
Lengths:  26.10780  26.10780  26.10780
Angles:   90.00000  90.00000  90.00000
Rectangular boundary conditions

net charge:   0.00000000

component   0 (CO2) lambda:  0 occupancy:  0 (0.000000)
    net charge:   0.00000000 [e]

Amount of molecules per component :
-------------------------------------------------------------------------------
Component 0 (CO2)
    molecules:         2.140000e+02 molecules
    number density:    1.202549e-02 molec/A^3
    density:           8.786030e+02 kg/m^3

Total potential energy/kʙ       -2.574018e+05 [K]
-------------------------------------------------------------------------------
    external field VDW/kʙ        0.000000e+00 [K]
    external field Real/kʙ       0.000000e+00 [K]
    framework-molecule VDW/kʙ    0.000000e+00 [K]
    framework-molecule Real/kʙ   0.000000e+00 [K]
    molecule-molecule VDW/kʙ    -1.924605e+05 [K]
    molecule-molecule Real/kʙ   -5.086329e+04 [K]
    Van der Waals (Tail)/kʙ     -6.204316e+03 [K]
    Ewald Fourier/kʙ             1.155020e+04 [K]
    Ewald self/kʙ               -4.305401e+06 [K]
    Ewald exclusion/kʙ           4.285977e+06 [K]
    intra VDW/kʙ                 0.000000e+00 [K]
    intra Coulombic/kʙ           0.000000e+00 [K]
    polarization/kʙ              0.000000e+00 [K]
    dU/dlambda VDW/kʙ            0.000000e+00 [K]
    dU/dlambda Real/kʙ           0.000000e+00 [K]
    dU/dlambda Ewald/kʙ          0.000000e+00 [K]


Initialization: Current cycle: 1100 out of 2000
===============================================================================

Box:      25.57900   0.00000   0.00000
           0.00000  25.57900   0.00000
           0.00000   0.00000  25.57900
Lengths:  25.57900  25.57900  25.57900
Angles:   90.00000  90.00000  90.00000
Rectangular boundary conditions

net charge:   0.00000000

component   0 (CO2) lambda:  0 occupancy:  0 (0.000000)
    net charge:   0.00000000 [e]

Amount of molecules per component :
-------------------------------------------------------------------------------
Component 0 (CO2)
    molecules:         2.070000e+02 molecules
    number density:    1.236858e-02 molec/A^3
    density:           9.036697e+02 kg/m^3

Total potential energy/kʙ       -2.716454e+05 [K]
-------------------------------------------------------------------------------
    external field VDW/kʙ        0.000000e+00 [K]
    external field Real/kʙ       0.000000e+00 [K]
    framework-molecule VDW/kʙ    0.000000e+00 [K]
    framework-molecule Real/kʙ   0.000000e+00 [K]
    molecule-molecule VDW/kʙ    -1.950599e+05 [K]
    molecule-molecule Real/kʙ   -6.018353e+04 [K]
    Van der Waals (Tail)/kʙ     -6.172591e+03 [K]
    Ewald Fourier/kʙ             8.559068e+03 [K]
    Ewald self/kʙ               -4.164570e+06 [K]
    Ewald exclusion/kʙ           4.145782e+06 [K]
    intra VDW/kʙ                 0.000000e+00 [K]
    intra Coulombic/kʙ           0.000000e+00 [K]
    polarization/kʙ              0.000000e+00 [K]
    dU/dlambda VDW/kʙ            0.000000e+00 [K]
    dU/dlambda Real/kʙ           0.000000e+00 [K]
    dU/dlambda Ewald/kʙ          0.000000e+00 [K]


Initialization: Current cycle: 1200 out of 2000
===============================================================================

Box:      25.85410   0.00000   0.00000
           0.00000  25.85410   0.00000
           0.00000   0.00000  25.85410
Lengths:  25.85410  25.85410  25.85410
Angles:   90.00000  90.00000  90.00000
Rectangular boundary conditions

net charge:   0.00000000

component   0 (CO2) lambda:  0 occupancy:  0 (0.000000)
    net charge:   0.00000000 [e]

Amount of molecules per component :
-------------------------------------------------------------------------------
Component 0 (CO2)
    molecules:         2.050000e+02 molecules
    number density:    1.186220e-02 molec/A^3
    density:           8.666728e+02 kg/m^3

Total potential energy/kʙ       -2.457969e+05 [K]
-------------------------------------------------------------------------------
    external field VDW/kʙ        0.000000e+00 [K]
    external field Real/kʙ       0.000000e+00 [K]
    framework-molecule VDW/kʙ    0.000000e+00 [K]
    framework-molecule Real/kʙ   0.000000e+00 [K]
    molecule-molecule VDW/kʙ    -1.824552e+05 [K]
    molecule-molecule Real/kʙ   -4.969260e+04 [K]
    Van der Waals (Tail)/kʙ     -5.862684e+03 [K]
    Ewald Fourier/kʙ             1.082054e+04 [K]
    Ewald self/kʙ               -4.124333e+06 [K]
    Ewald exclusion/kʙ           4.105726e+06 [K]
    intra VDW/kʙ                 0.000000e+00 [K]
    intra Coulombic/kʙ           0.000000e+00 [K]
    polarization/kʙ              0.000000e+00 [K]
    dU/dlambda VDW/kʙ            0.000000e+00 [K]
    dU/dlambda Real/kʙ           0.000000e+00 [K]
    dU/dlambda Ewald/kʙ          0.000000e+00 [K]


Initialization: Current cycle: 1300 out of 2000
===============================================================================

Box:      25.90015   0.00000   0.00000
           0.00000  25.90015   0.00000
           0.00000   0.00000  25.90015
Lengths:  25.90015  25.90015  25.90015
Angles:   90.00000  90.00000  90.00000
Rectangular boundary conditions

net charge:   0.00000000

component   0 (CO2) lambda:  0 occupancy:  0 (0.000000)
    net charge:   0.00000000 [e]

Amount of molecules per component :
-------------------------------------------------------------------------------
Component 0 (CO2)
    molecules:         1.960000e+02 molecules
    number density:    1.128104e-02 molec/A^3
    density:           8.242119e+02 kg/m^3

Total potential energy/kʙ       -2.302769e+05 [K]
-------------------------------------------------------------------------------
    external field VDW/kʙ        0.000000e+00 [K]
    external field Real/kʙ       0.000000e+00 [K]
    framework-molecule VDW/kʙ    0.000000e+00 [K]
    framework-molecule Real/kʙ   0.000000e+00 [K]
    molecule-molecule VDW/kʙ    -1.665083e+05 [K]
    molecule-molecule Real/kʙ   -5.095158e+04 [K]
    Van der Waals (Tail)/kʙ     -5.330677e+03 [K]
    Ewald Fourier/kʙ             1.030362e+04 [K]
    Ewald self/kʙ               -3.943265e+06 [K]
    Ewald exclusion/kʙ           3.925474e+06 [K]
    intra VDW/kʙ                 0.000000e+00 [K]
    intra Coulombic/kʙ           0.000000e+00 [K]
    polarization/kʙ              0.000000e+00 [K]
    dU/dlambda VDW/kʙ            0.000000e+00 [K]
    dU/dlambda Real/kʙ           0.000000e+00 [K]
    dU/dlambda Ewald/kʙ          0.000000e+00 [K]


Initialization: Current cycle: 1400 out of 2000
===============================================================================

Box:      26.22584   0.00000   0.00000
           0.00000  26.22584   0.00000
           0.00000   0.00000  26.22584
Lengths:  26.22584  26.22584  26.22584
Angles:   90.00000  90.00000  90.00000
Rectangular boundary conditions

net charge:   0.00000000

component   0 (CO2) lambda:  0 occupancy:  0 (0.000000)
    net charge:   0.00000000 [e]

Amount of molecules per component :
-------------------------------------------------------------------------------
Component 0 (CO2)
    molecules:         2.090000e+02 molecules
    number density:    1.158665e-02 molec/A^3
    density:           8.465405e+02 kg/m^3

Total potential energy/kʙ       -2.482921e+05 [K]
-------------------------------------------------------------------------------
    external field VDW/kʙ        0.000000e+00 [K]
    external field Real/kʙ       0.000000e+00 [K]
    framework-molecule VDW/kʙ    0.000000e+00 [K]
    framework-molecule Real/kʙ   0.000000e+00 [K]
    molecule-molecule VDW/kʙ    -1.812656e+05 [K]
    molecule-molecule Real/kʙ   -5.180370e+04 [K]
    Van der Waals (Tail)/kʙ     -5.838234e+03 [K]
    Ewald Fourier/kʙ             9.585401e+03 [K]
    Ewald self/kʙ               -4.204808e+06 [K]
    Ewald exclusion/kʙ           4.185838e+06 [K]
    intra VDW/kʙ                 0.000000e+00 [K]
    intra Coulombic/kʙ           0.000000e+00 [K]
    polarization/kʙ              0.000000e+00 [K]
    dU/dlambda VDW/kʙ            0.000000e+00 [K]
    dU/dlambda Real/kʙ           0.000000e+00 [K]
    dU/dlambda Ewald/kʙ          0.000000e+00 [K]


Initialization: Current cycle: 1500 out of 2000
===============================================================================

Box:      25.59982   0.00000   0.00000
           0.00000  25.59982   0.00000
           0.00000   0.00000  25.59982
Lengths:  25.59982  25.59982  25.59982
Angles:   90.00000  90.00000  90.00000
Rectangular boundary conditions

net charge:   0.00000000

component   0 (CO2) lambda:  0 occupancy:  0 (0.000000)
    net charge:   0.00000000 [e]

Amount of molecules per component :
-------------------------------------------------------------------------------
Component 0 (CO2)
    molecules:         2.060000e+02 molecules
    number density:    1.227882e-02 molec/A^3
    density:           8.971116e+02 kg/m^3

Total potential energy/kʙ       -2.452094e+05 [K]
-------------------------------------------------------------------------------
    external field VDW/kʙ        0.000000e+00 [K]
    external field Real/kʙ       0.000000e+00 [K]
    framework-molecule VDW/kʙ    0.000000e+00 [K]
    framework-molecule Real/kʙ   0.000000e+00 [K]
    molecule-molecule VDW/kʙ    -1.749856e+05 [K]
    molecule-molecule Real/kʙ   -5.452764e+04 [K]
    Van der Waals (Tail)/kʙ     -6.098193e+03 [K]
    Ewald Fourier/kʙ             9.099730e+03 [K]
    Ewald self/kʙ               -4.144451e+06 [K]
    Ewald exclusion/kʙ           4.125754e+06 [K]
    intra VDW/kʙ                 0.000000e+00 [K]
    intra Coulombic/kʙ           0.000000e+00 [K]
    polarization/kʙ              0.000000e+00 [K]
    dU/dlambda VDW/kʙ            0.000000e+00 [K]
    dU/dlambda Real/kʙ           0.000000e+00 [K]
    dU/dlambda Ewald/kʙ          0.000000e+00 [K]


Initialization: Current cycle: 1600 out of 2000
===============================================================================

Box:      25.39076   0.00000   0.00000
           0.00000  25.39076   0.00000
           0.00000   0.00000  25.39076
Lengths:  25.39076  25.39076  25.39076
Angles:   90.00000  90.00000  90.00000
Rectangular boundary conditions

net charge:   0.00000000

component   0 (CO2) lambda:  0 occupancy:  0 (0.000000)
    net charge:   0.00000000 [e]

Amount of molecules per component :
-------------------------------------------------------------------------------
Component 0 (CO2)
    molecules:         2.070000e+02 molecules
    number density:    1.264572e-02 molec/A^3
    density:           9.239177e+02 kg/m^3

Total potential energy/kʙ       -2.704482e+05 [K]
-------------------------------------------------------------------------------
    external field VDW/kʙ        0.000000e+00 [K]
    external field Real/kʙ       0.000000e+00 [K]
    framework-molecule VDW/kʙ    0.000000e+00 [K]
    framework-molecule Real/kʙ   0.000000e+00 [K]
    molecule-molecule VDW/kʙ    -1.960246e+05 [K]
    molecule-molecule Real/kʙ   -5.916730e+04 [K]
    Van der Waals (Tail)/kʙ     -6.310897e+03 [K]
    Ewald Fourier/kʙ             9.842989e+03 [K]
    Ewald self/kʙ               -4.164570e+06 [K]
    Ewald exclusion/kʙ           4.145782e+06 [K]
    intra VDW/kʙ                 0.000000e+00 [K]
    intra Coulombic/kʙ           0.000000e+00 [K]
    polarization/kʙ              0.000000e+00 [K]
    dU/dlambda VDW/kʙ            0.000000e+00 [K]
    dU/dlambda Real/kʙ           0.000000e+00 [K]
    dU/dlambda Ewald/kʙ          0.000000e+00 [K]


Initialization: Current cycle: 1700 out of 2000
===============================================================================

Box:      25.50131   0.00000   0.00000
           0.00000  25.50131   0.00000
           0.00000   0.00000  25.50131
Lengths:  25.50131  25.50131  25.50131
Angles:   90.00000  90.00000  90.00000
Rectangular boundary conditions

net charge:   0.00000000

component   0 (CO2) lambda:  0 occupancy:  0 (0.000000)
    net charge:   0.00000000 [e]

Amount of molecules per component :
-------------------------------------------------------------------------------
Component 0 (CO2)
    molecules:         2.070000e+02 molecules
    number density:    1.248196e-02 molec/A^3
    density:           9.119531e+02 kg/m^3

Total potential energy/kʙ       -2.483605e+05 [K]
-------------------------------------------------------------------------------
    external field VDW/kʙ        0.000000e+00 [K]
    external field Real/kʙ       0.000000e+00 [K]
    framework-molecule VDW/kʙ    0.000000e+00 [K]
    framework-molecule Real/kʙ   0.000000e+00 [K]
    molecule-molecule VDW/kʙ    -1.843985e+05 [K]
    molecule-molecule Real/kʙ   -4.928311e+04 [K]
    Van der Waals (Tail)/kʙ     -6.229172e+03 [K]
    Ewald Fourier/kʙ             1.033875e+04 [K]
    Ewald self/kʙ               -4.164570e+06 [K]
    Ewald exclusion/kʙ           4.145782e+06 [K]
    intra VDW/kʙ                 0.000000e+00 [K]
    intra Coulombic/kʙ           0.000000e+00 [K]
    polarization/kʙ              0.000000e+00 [K]
    dU/dlambda VDW/kʙ            0.000000e+00 [K]
    dU/dlambda Real/kʙ           0.000000e+00 [K]
    dU/dlambda Ewald/kʙ          0.000000e+00 [K]


Initialization: Current cycle: 1800 out of 2000
===============================================================================

Box:      25.86376   0.00000   0.00000
           0.00000  25.86376   0.00000
           0.00000   0.00000  25.86376
Lengths:  25.86376  25.86376  25.86376
Angles:   90.00000  90.00000  90.00000
Rectangular boundary conditions

net charge:   0.00000000

component   0 (CO2) lambda:  0 occupancy:  0 (0.000000)
    net charge:   0.00000000 [e]

Amount of molecules per component :
-------------------------------------------------------------------------------
Component 0 (CO2)
    molecules:         2.120000e+02 molecules
    number density:    1.225352e-02 molec/A^3
    density:           8.952634e+02 kg/m^3

Total potential energy/kʙ       -2.543781e+05 [K]
-------------------------------------------------------------------------------
    external field VDW/kʙ        0.000000e+00 [K]
    external field Real/kʙ       0.000000e+00 [K]
    framework-molecule VDW/kʙ    0.000000e+00 [K]
    framework-molecule Real/kʙ   0.000000e+00 [K]
    molecule-molecule VDW/kʙ    -1.862237e+05 [K]
    molecule-molecule Real/kʙ   -5.304852e+04 [K]
    Van der Waals (Tail)/kʙ     -6.262881e+03 [K]
    Ewald Fourier/kʙ             1.039933e+04 [K]
    Ewald self/kʙ               -4.265164e+06 [K]
    Ewald exclusion/kʙ           4.245921e+06 [K]
    intra VDW/kʙ                 0.000000e+00 [K]
    intra Coulombic/kʙ           0.000000e+00 [K]
    polarization/kʙ              0.000000e+00 [K]
    dU/dlambda VDW/kʙ            0.000000e+00 [K]
    dU/dlambda Real/kʙ           0.000000e+00 [K]
    dU/dlambda Ewald/kʙ          0.000000e+00 [K]


Initialization: Current cycle: 1900 out of 2000
===============================================================================

Box:      25.78549   0.00000   0.00000
           0.00000  25.78549   0.00000
           0.00000   0.00000  25.78549
Lengths:  25.78549  25.78549  25.78549
Angles:   90.00000  90.00000  90.00000
Rectangular boundary conditions

net charge:   0.00000000

component   0 (CO2) lambda:  0 occupancy:  0 (0.000000)
    net charge:   0.00000000 [e]

Amount of molecules per component :
-------------------------------------------------------------------------------
Component 0 (CO2)
    molecules:         2.070000e+02 molecules
    number density:    1.207380e-02 molec/A^3
    density:           8.821325e+02 kg/m^3

Total potential energy/kʙ       -2.554049e+05 [K]
-------------------------------------------------------------------------------
    external field VDW/kʙ        0.000000e+00 [K]
    external field Real/kʙ       0.000000e+00 [K]
    framework-molecule VDW/kʙ    0.000000e+00 [K]
    framework-molecule Real/kʙ   0.000000e+00 [K]
    molecule-molecule VDW/kʙ    -1.878925e+05 [K]
    molecule-molecule Real/kʙ   -5.203195e+04 [K]
    Van der Waals (Tail)/kʙ     -6.025480e+03 [K]
    Ewald Fourier/kʙ             9.333507e+03 [K]
    Ewald self/kʙ               -4.164570e+06 [K]
    Ewald exclusion/kʙ           4.145782e+06 [K]
    intra VDW/kʙ                 0.000000e+00 [K]
    intra Coulombic/kʙ           0.000000e+00 [K]
    polarization/kʙ              0.000000e+00 [K]
    dU/dlambda VDW/kʙ            0.000000e+00 [K]
    dU/dlambda Real/kʙ           0.000000e+00 [K]
    dU/dlambda Ewald/kʙ          0.000000e+00 [K]


Current cycle: 0 out of 6000
===============================================================================

Box:      25.13865   0.00000   0.00000  Average:  25.13865   0.00000   0.00000
           0.00000  25.13865   0.00000             0.00000  25.13865   0.00000
           0.00000   0.00000  25.13865             0.00000   0.00000  25.13865
Lengths:  25.13865  25.13865  25.13865  Average:  25.13865  25.13865  25.13865
Angles:   90.00000  90.00000  90.00000  Average:  90.00000  90.00000  90.00000
Rectangular boundary conditions

net charge:   0.00000000

component 0 (CO2) lambda:  0 occupancy:  0 (0.000000)
    net charge:   0.00000000 [e]

Amount of molecules per component :
-------------------------------------------------------------------------------
Component 0 (CO2)
    molecules:      1.970000e+02 molecules  (1.970000e+02 +/- 0.000000e+00)
    number density: 1.240054e-02 molec./A^3 (1.240054e-02 +/- 0.000000e+00)
    density:        9.060046e+02 kg/m^3     (9.060046e+02 +/- 0.000000e+00)

Average pressure tensor: 
-------------------------------------------------------------------------------
 4.7938e+02  0.0000e+00  0.0000e+00 +/- 0.0000e+00 0.0000e+00 0.0000e+00 [bar]
 0.0000e+00  4.7938e+02  0.0000e+00 +/- 0.0000e+00 0.0000e+00 0.0000e+00 [bar]
 0.0000e+00  0.0000e+00  4.7938e+02 +/- 0.0000e+00 0.0000e+00 0.0000e+00 [bar]
Ideal-gas pressure:   4.793826e+02 +/ 0.000000e+00 [bar]
Excess pressure:      0.000000e+00 +/ 0.000000e+00 [bar]
Pressure:             4.793826e+02 +/ 0.000000e+00 [bar]

Total potential energy/kʙ  -2.426655e+05 (-2.426655e+05 +/- 0.000000e+00) [K]
-------------------------------------------------------------------------------
ExternalField-molecule
    Van der Waals/kʙ        0.000000e+00 ( 0.000000e+00 +/- 0.000000e+00) [K]
Framework-molecule
    Van der Waals/kʙ        0.000000e+00 ( 0.000000e+00 +/- 0.000000e+00) [K]
    Van der Waals (Tail)/kʙ 0.000000e+00 ( 0.000000e+00 +/- 0.000000e+00) [K]
    Coulombic Real/kʙ       0.000000e+00 ( 0.000000e+00 +/- 0.000000e+00) [K]
    Coulombic Fourier/kʙ    0.000000e+00 ( 0.000000e+00 +/- 0.000000e+00) [K]
Molecule-molecule
    Van der Waals/kʙ       -1.790554e+05 (-1.790554e+05 +/- 0.000000e+00) [K]
    Van der Waals (Tail)/kʙ-5.889577e+03 (-5.889577e+03 +/- 0.000000e+00) [K]
    Coulombic Real/kʙ      -4.876924e+04 (-4.876924e+04 +/- 0.000000e+00) [K]
    Coulombic Fourier/kʙ   -8.951261e+03 (-8.951261e+03 +/- 0.000000e+00) [K]
    Molecule Intra/kʙ       0.000000e+00 ( 0.000000e+00 +/- 0.000000e+00) [K]

Current cycle: 100 out of 6000
===============================================================================

Box:      25.44689   0.00000   0.00000  Average:  25.25279   0.00000   0.00000
           0.00000  25.44689   0.00000             0.00000  25.25279   0.00000
           0.00000   0.00000  25.44689             0.00000   0.00000  25.25279
Lengths:  25.44689  25.44689  25.44689  Average:  25.25279  25.25279  25.25279
Angles:   90.00000  90.00000  90.00000  Average:  90.00000  90.00000  90.00000
Rectangular boundary conditions

net charge:   0.00000000

component 0 (CO2) lambda:  0 occupancy:  0 (0.000000)
    net charge:   0.00000000 [e]

Amount of molecules per component :
-------------------------------------------------------------------------------
Component 0 (CO2)
    molecules:      2.120000e+02 molecules  (2.028614e+02 +/- 0.000000e+00)
    number density: 1.286565e-02 molec./A^3 (1.259572e-02 +/- 0.000000e+00)
    density:        9.399865e+02 kg/m^3     (9.202646e+02 +/- 0.000000e+00)

Average pressure tensor: 
-------------------------------------------------------------------------------
 1.2704e+02  1.6301e+01  2.7172e+01 +/- 0.0000e+00 0.0000e+00 0.0000e+00 [bar]
 1.6301e+01  1.3729e+01 -6.2375e+01 +/- 0.0000e+00 0.0000e+00 0.0000e+00 [bar]
 2.7172e+01 -6.2375e+01  1.4178e+02 +/- 0.0000e+00 0.0000e+00 0.0000e+00 [bar]
Ideal-gas pressure:   4.869278e+02 +/ 0.000000e+00 [bar]
Excess pressure:     -3.927455e+02 +/ 0.000000e+00 [bar]
Pressure:             9.418237e+01 +/ 0.000000e+00 [bar]

Total potential energy/kʙ  -2.804505e+05 (-2.634786e+05 +/- 0.000000e+00) [K]
-------------------------------------------------------------------------------
ExternalField-molecule
    Van der Waals/kʙ        0.000000e+00 ( 0.000000e+00 +/- 0.000000e+00) [K]
Framework-molecule
    Van der Waals/kʙ        0.000000e+00 ( 0.000000e+00 +/- 0.000000e+00) [K]
    Van der Waals (Tail)/kʙ 0.000000e+00 ( 0.000000e+00 +/- 0.000000e+00) [K]
    Coulombic Real/kʙ       0.000000e+00 ( 0.000000e+00 +/- 0.000000e+00) [K]
    Coulombic Fourier/kʙ    0.000000e+00 ( 0.000000e+00 +/- 0.000000e+00) [K]
Molecule-molecule
    Van der Waals/kʙ       -2.128366e+05 (-1.915098e+05 +/- 0.000000e+00) [K]
    Van der Waals (Tail)/kʙ-6.575745e+03 (-6.162230e+03 +/- 0.000000e+00) [K]
    Coulombic Real/kʙ      -5.198537e+04 (-5.665052e+04 +/- 0.000000e+00) [K]
    Coulombic Fourier/kʙ   -9.052791e+03 (-9.156129e+03 +/- 0.000000e+00) [K]
    Molecule Intra/kʙ       0.000000e+00 ( 0.000000e+00 +/- 0.000000e+00) [K]

Current cycle: 200 out of 6000
===============================================================================

Box:      25.67110   0.00000   0.00000  Average:  25.52166   0.00000   0.00000
           0.00000  25.67110   0.00000             0.00000  25.52166   0.00000
           0.00000   0.00000  25.67110             0.00000   0.00000  25.52166
Lengths:  25.67110  25.67110  25.67110  Average:  25.52166  25.52166  25.52166
Angles:   90.00000  90.00000  90.00000  Average:  90.00000  90.00000  90.00000
Rectangular boundary conditions

net charge:   0.00000000

component 0 (CO2) lambda:  0 occupancy:  0 (0.000000)
    net charge:   0.00000000 [e]

Amount of molecules per component :
-------------------------------------------------------------------------------
Component 0 (CO2)
    molecules:      2.190000e+02 molecules  (2.049801e+02 +/- 0.000000e+00)
    number density: 1.294526e-02 molec./A^3 (1.233859e-02 +/- 0.000000e+00)
    density:        9.458029e+02 kg/m^3     (9.014787e+02 +/- 0.000000e+00)

Average pressure tensor: 
-------------------------------------------------------------------------------
 1.7005e+01  1.9125e+01  5.0432e+01 +/- 0.0000e+00 0.0000e+00 0.0000e+00 [bar]
 1.9125e+01 -2.1704e+01 -6.4728e+01 +/- 0.0000e+00 0.0000e+00 0.0000e+00 [bar]
 5.0432e+01 -6.4728e+01  9.8420e+01 +/- 0.0000e+00 0.0000e+00 0.0000e+00 [bar]
Ideal-gas pressure:   4.769879e+02 +/ 0.000000e+00 [bar]
Excess pressure:     -4.457476e+02 +/ 0.000000e+00 [bar]
Pressure:             3.124023e+01 +/ 0.000000e+00 [bar]

Total potential energy/kʙ  -2.820055e+05 (-2.592645e+05 +/- 0.000000e+00) [K]
-------------------------------------------------------------------------------
ExternalField-molecule
    Van der Waals/kʙ        0.000000e+00 ( 0.000000e+00 +/- 0.000000e+00) [K]
Framework-molecule
    Van der Waals/kʙ        0.000000e+00 ( 0.000000e+00 +/- 0.000000e+00) [K]
    Van der Waals (Tail)/kʙ 0.000000e+00 ( 0.000000e+00 +/- 0.000000e+00) [K]
    Coulombic Real/kʙ       0.000000e+00 ( 0.000000e+00 +/- 0.000000e+00) [K]
    Coulombic Fourier/kʙ    0.000000e+00 ( 0.000000e+00 +/- 0.000000e+00) [K]
Molecule-molecule
    Van der Waals/kʙ       -2.089564e+05 (-1.900196e+05 +/- 0.000000e+00) [K]
    Van der Waals (Tail)/kʙ-6.834901e+03 (-6.090813e+03 +/- 0.000000e+00) [K]
    Coulombic Real/kʙ      -5.684386e+04 (-5.434414e+04 +/- 0.000000e+00) [K]
    Coulombic Fourier/kʙ   -9.370263e+03 (-8.809886e+03 +/- 0.000000e+00) [K]
    Molecule Intra/kʙ       0.000000e+00 ( 0.000000e+00 +/- 0.000000e+00) [K]

Current cycle: 300 out of 6000
===============================================================================

Box:      25.70164   0.00000   0.00000  Average:  25.61478   0.00000   0.00000
           0.00000  25.70164   0.00000             0.00000  25.61478   0.00000
           0.00000   0.00000  25.70164             0.00000   0.00000  25.61478
Lengths:  25.70164  25.70164  25.70164  Average:  25.61478  25.61478  25.61478
Angles:   90.00000  90.00000  90.00000  Average:  90.00000  90.00000  90.00000
Rectangular boundary conditions

net charge:   0.00000000

component 0 (CO2) lambda:  0 occupancy:  0 (0.000000)
    net charge:   0.00000000 [e]

Amount of molecules per component :
-------------------------------------------------------------------------------
Component 0 (CO2)
    molecules:      2.080000e+02 molecules  (2.061960e+02 +/- 0.000000e+00)
    number density: 1.225126e-02 molec./A^3 (1.227488e-02 +/- 0.000000e+00)
    density:        8.950977e+02 kg/m^3     (8.968237e+02 +/- 0.000000e+00)

Average pressure tensor: 
-------------------------------------------------------------------------------
 6.7832e+01  4.1966e+01  3.8263e-01 +/- 0.0000e+00 0.0000e+00 0.0000e+00 [bar]
 4.1966e+01  6.5470e+01 -2.7628e+01 +/- 0.0000e+00 0.0000e+00 0.0000e+00 [bar]
 3.8263e-01 -2.7628e+01  9.9541e+01 +/- 0.0000e+00 0.0000e+00 0.0000e+00 [bar]
Ideal-gas pressure:   4.745249e+02 +/ 0.000000e+00 [bar]
Excess pressure:     -3.969104e+02 +/ 0.000000e+00 [bar]
Pressure:             7.761442e+01 +/ 0.000000e+00 [bar]

Total potential energy/kʙ  -2.582106e+05 (-2.582600e+05 +/- 0.000000e+00) [K]
-------------------------------------------------------------------------------
ExternalField-molecule
    Van der Waals/kʙ        0.000000e+00 ( 0.000000e+00 +/- 0.000000e+00) [K]
Framework-molecule
    Van der Waals/kʙ        0.000000e+00 ( 0.000000e+00 +/- 0.000000e+00) [K]
    Van der Waals (Tail)/kʙ 0.000000e+00 ( 0.000000e+00 +/- 0.000000e+00) [K]
    Coulombic Real/kʙ       0.000000e+00 ( 0.000000e+00 +/- 0.000000e+00) [K]
    Coulombic Fourier/kʙ    0.000000e+00 ( 0.000000e+00 +/- 0.000000e+00) [K]
Molecule-molecule
    Van der Waals/kʙ       -1.857910e+05 (-1.894169e+05 +/- 0.000000e+00) [K]
    Van der Waals (Tail)/kʙ-6.143576e+03 (-6.104491e+03 +/- 0.000000e+00) [K]
    Coulombic Real/kʙ      -5.785840e+04 (-5.395809e+04 +/- 0.000000e+00) [K]
    Coulombic Fourier/kʙ   -8.417605e+03 (-8.780529e+03 +/- 0.000000e+00) [K]
    Molecule Intra/kʙ       0.000000e+00 ( 0.000000e+00 +/- 0.000000e+00) [K]

Current cycle: 400 out of 6000
===============================================================================

Box:      25.18283   0.00000   0.00000  Average:  25.60989   0.00000   0.00000
           0.00000  25.18283   0.00000             0.00000  25.60989   0.00000
           0.00000   0.00000  25.18283             0.00000   0.00000  25.60989
Lengths:  25.18283  25.18283  25.18283  Average:  25.60989  25.60989  25.60989
Angles:   90.00000  90.00000  90.00000  Average:  90.00000  90.00000  90.00000
Rectangular boundary conditions

net charge:   0.00000000

component 0 (CO2) lambda:  0 occupancy:  0 (0.000000)
    net charge:   0.00000000 [e]

Amount of molecules per component :
-------------------------------------------------------------------------------
Component 0 (CO2)
    molecules:      1.930000e+02 molecules  (2.047032e+02 +/- 0.000000e+00)
    number density: 1.208491e-02 molec./A^3 (1.218938e-02 +/- 0.000000e+00)
    density:        8.829444e+02 kg/m^3     (8.905770e+02 +/- 0.000000e+00)

Average pressure tensor: 
-------------------------------------------------------------------------------
 5.0789e+01  8.9981e+00  5.7256e-01 +/- 0.0000e+00 0.0000e+00 0.0000e+00 [bar]
 8.9981e+00  7.2112e+01 -3.0595e+01 +/- 0.0000e+00 0.0000e+00 0.0000e+00 [bar]
 5.7256e-01 -3.0595e+01  5.6670e+01 +/- 0.0000e+00 0.0000e+00 0.0000e+00 [bar]
Ideal-gas pressure:   4.712196e+02 +/ 0.000000e+00 [bar]
Excess pressure:     -4.113628e+02 +/ 0.000000e+00 [bar]
Pressure:             5.985678e+01 +/ 0.000000e+00 [bar]

Total potential energy/kʙ  -2.330077e+05 (-2.544106e+05 +/- 0.000000e+00) [K]
-------------------------------------------------------------------------------
ExternalField-molecule
    Van der Waals/kʙ        0.000000e+00 ( 0.000000e+00 +/- 0.000000e+00) [K]
Framework-molecule
    Van der Waals/kʙ        0.000000e+00 ( 0.000000e+00 +/- 0.000000e+00) [K]
    Van der Waals (Tail)/kʙ 0.000000e+00 ( 0.000000e+00 +/- 0.000000e+00) [K]
    Coulombic Real/kʙ       0.000000e+00 ( 0.000000e+00 +/- 0.000000e+00) [K]
    Coulombic Fourier/kʙ    0.000000e+00 ( 0.000000e+00 +/- 0.000000e+00) [K]
Molecule-molecule
    Van der Waals/kʙ       -1.757627e+05 (-1.868226e+05 +/- 0.000000e+00) [K]
    Van der Waals (Tail)/kʙ-5.623130e+03 (-6.017908e+03 +/- 0.000000e+00) [K]
    Coulombic Real/kʙ      -4.356686e+04 (-5.286691e+04 +/- 0.000000e+00) [K]
    Coulombic Fourier/kʙ   -8.055023e+03 (-8.703115e+03 +/- 0.000000e+00) [K]
    Molecule Intra/kʙ       0.000000e+00 ( 0.000000e+00 +/- 0.000000e+00) [K]

Current cycle: 500 out of 6000
===============================================================================

Box:      25.13438   0.00000   0.00000  Average:  25.51019   0.00000   0.00000
           0.00000  25.13438   0.00000             0.00000  25.51019   0.00000
           0.00000   0.00000  25.13438             0.00000   0.00000  25.51019
Lengths:  25.13438  25.13438  25.13438  Average:  25.51019  25.51019  25.51019
Angles:   90.00000  90.00000  90.00000  Average:  90.00000  90.00000  90.00000
Rectangular boundary conditions

net charge:   0.00000000

component 0 (CO2) lambda:  0 occupancy:  0 (0.000000)
    net charge:   0.00000000 [e]

Amount of molecules per component :
-------------------------------------------------------------------------------
Component 0 (CO2)
    molecules:      2.000000e+02 molecules  (2.020998e+02 +/- 0.000000e+00)
    number density: 1.259579e-02 molec./A^3 (1.217259e-02 +/- 0.000000e+00)
    density:        9.202702e+02 kg/m^3     (8.893499e+02 +/- 0.000000e+00)

Average pressure tensor: 
-------------------------------------------------------------------------------
 3.9535e+01 -6.5249e+00  8.7991e-01 +/- 0.0000e+00 0.0000e+00 0.0000e+00 [bar]
-6.5249e+00  8.5818e+01 -3.3188e+01 +/- 0.0000e+00 0.0000e+00 0.0000e+00 [bar]
 8.7991e-01 -3.3188e+01  2.2764e+01 +/- 0.0000e+00 0.0000e+00 0.0000e+00 [bar]
Ideal-gas pressure:   4.705704e+02 +/ 0.000000e+00 [bar]
Excess pressure:     -4.211978e+02 +/ 0.000000e+00 [bar]
Pressure:             4.937259e+01 +/ 0.000000e+00 [bar]

Total potential energy/kʙ  -2.517437e+05 (-2.514954e+05 +/- 0.000000e+00) [K]
-------------------------------------------------------------------------------
ExternalField-molecule
    Van der Waals/kʙ        0.000000e+00 ( 0.000000e+00 +/- 0.000000e+00) [K]
Framework-molecule
    Van der Waals/kʙ        0.000000e+00 ( 0.000000e+00 +/- 0.000000e+00) [K]
    Van der Waals (Tail)/kʙ 0.000000e+00 ( 0.000000e+00 +/- 0.000000e+00) [K]
    Coulombic Real/kʙ       0.000000e+00 ( 0.000000e+00 +/- 0.000000e+00) [K]
    Coulombic Fourier/kʙ    0.000000e+00 ( 0.000000e+00 +/- 0.000000e+00) [K]
Molecule-molecule
    Van der Waals/kʙ       -1.890787e+05 (-1.849399e+05 +/- 0.000000e+00) [K]
    Van der Waals (Tail)/kʙ-6.073413e+03 (-5.958579e+03 +/- 0.000000e+00) [K]
    Coulombic Real/kʙ      -4.788189e+04 (-5.205932e+04 +/- 0.000000e+00) [K]
    Coulombic Fourier/kʙ   -8.709766e+03 (-8.537591e+03 +/- 0.000000e+00) [K]
    Molecule Intra/kʙ       0.000000e+00 ( 0.000000e+00 +/- 0.000000e+00) [K]

Current cycle: 600 out of 6000
===============================================================================

Box:      25.22017   0.00000   0.00000  Average:  25.41828   0.00000   0.00000
           0.00000  25.22017   0.00000             0.00000  25.41828   0.00000
           0.00000   0.00000  25.22017             0.00000   0.00000  25.41828
Lengths:  25.22017  25.22017  25.22017  Average:  25.41828  25.41828  25.41828
Angles:   90.00000  90.00000  90.00000  Average:  90.00000  90.00000  90.00000
Rectangular boundary conditions

net charge:   0.00000000

component 0 (CO2) lambda:  0 occupancy:  0 (0.000000)
    net charge:   0.00000000 [e]

Amount of molecules per component :
-------------------------------------------------------------------------------
Component 0 (CO2)
    molecules:      1.940000e+02 molecules  (2.017321e+02 +/- 0.000000e+00)
    number density: 1.209366e-02 molec./A^3 (1.228680e-02 +/- 0.000000e+00)
    density:        8.835834e+02 kg/m^3     (8.976949e+02 +/- 0.000000e+00)

Average pressure tensor: 
-------------------------------------------------------------------------------
 3.7579e+01 -1.7838e+01  2.2910e+00 +/- 0.0000e+00 0.0000e+00 0.0000e+00 [bar]
-1.7838e+01  1.3079e+02 -1.9912e+01 +/- 0.0000e+00 0.0000e+00 0.0000e+00 [bar]
 2.2910e+00 -1.9912e+01  4.0184e+01 +/- 0.0000e+00 0.0000e+00 0.0000e+00 [bar]
Ideal-gas pressure:   4.749858e+02 +/ 0.000000e+00 [bar]
Excess pressure:     -4.054672e+02 +/ 0.000000e+00 [bar]
Pressure:             6.951862e+01 +/ 0.000000e+00 [bar]

Total potential energy/kʙ  -2.475462e+05 (-2.538308e+05 +/- 0.000000e+00) [K]
-------------------------------------------------------------------------------
ExternalField-molecule
    Van der Waals/kʙ        0.000000e+00 ( 0.000000e+00 +/- 0.000000e+00) [K]
Framework-molecule
    Van der Waals/kʙ        0.000000e+00 ( 0.000000e+00 +/- 0.000000e+00) [K]
    Van der Waals (Tail)/kʙ 0.000000e+00 ( 0.000000e+00 +/- 0.000000e+00) [K]
    Coulombic Real/kʙ       0.000000e+00 ( 0.000000e+00 +/- 0.000000e+00) [K]
    Coulombic Fourier/kʙ    0.000000e+00 ( 0.000000e+00 +/- 0.000000e+00) [K]
Molecule-molecule
    Van der Waals/kʙ       -1.818460e+05 (-1.864778e+05 +/- 0.000000e+00) [K]
    Van der Waals (Tail)/kʙ-5.656356e+03 (-5.997495e+03 +/- 0.000000e+00) [K]
    Coulombic Real/kʙ      -5.116001e+04 (-5.274624e+04 +/- 0.000000e+00) [K]
    Coulombic Fourier/kʙ   -8.883800e+03 (-8.609262e+03 +/- 0.000000e+00) [K]
    Molecule Intra/kʙ       0.000000e+00 ( 0.000000e+00 +/- 0.000000e+00) [K]

Current cycle: 700 out of 6000
===============================================================================

Box:      25.70581   0.00000   0.00000  Average:  25.45510   0.00000   0.00000
           0.00000  25.70581   0.00000             0.00000  25.45510   0.00000
           0.00000   0.00000  25.70581             0.00000   0.00000  25.45510
Lengths:  25.70581  25.70581  25.70581  Average:  25.45510  25.45510  25.45510
Angles:   90.00000  90.00000  90.00000  Average:  90.00000  90.00000  90.00000
Rectangular boundary conditions

net charge:   0.00000000

component 0 (CO2) lambda:  0 occupancy:  0 (0.000000)
    net charge:   0.00000000 [e]

Amount of molecules per component :
-------------------------------------------------------------------------------
Component 0 (CO2)
    molecules:      1.930000e+02 molecules  (2.014964e+02 +/- 0.000000e+00)
    number density: 1.136223e-02 molec./A^3 (1.222051e-02 +/- 0.000000e+00)
    density:        8.301438e+02 kg/m^3     (8.928511e+02 +/- 0.000000e+00)

Average pressure tensor: 
-------------------------------------------------------------------------------
 3.2685e+01 -1.4150e+01  3.1144e-01 +/- 0.0000e+00 0.0000e+00 0.0000e+00 [bar]
-1.4150e+01  1.0954e+02 -1.4051e+01 +/- 0.0000e+00 0.0000e+00 0.0000e+00 [bar]
 3.1144e-01 -1.4051e+01  1.9371e+01 +/- 0.0000e+00 0.0000e+00 0.0000e+00 [bar]
Ideal-gas pressure:   4.724229e+02 +/ 0.000000e+00 [bar]
Excess pressure:     -4.185585e+02 +/ 0.000000e+00 [bar]
Pressure:             5.386438e+01 +/ 0.000000e+00 [bar]

Total potential energy/kʙ  -2.221339e+05 (-2.517871e+05 +/- 0.000000e+00) [K]
-------------------------------------------------------------------------------
ExternalField-molecule
    Van der Waals/kʙ        0.000000e+00 ( 0.000000e+00 +/- 0.000000e+00) [K]
Framework-molecule
    Van der Waals/kʙ        0.000000e+00 ( 0.000000e+00 +/- 0.000000e+00) [K]
    Van der Waals (Tail)/kʙ 0.000000e+00 ( 0.000000e+00 +/- 0.000000e+00) [K]
    Coulombic Real/kʙ       0.000000e+00 ( 0.000000e+00 +/- 0.000000e+00) [K]
    Coulombic Fourier/kʙ    0.000000e+00 ( 0.000000e+00 +/- 0.000000e+00) [K]
Molecule-molecule
    Van der Waals/kʙ       -1.632378e+05 (-1.851172e+05 +/- 0.000000e+00) [K]
    Van der Waals (Tail)/kʙ-5.286863e+03 (-5.953590e+03 +/- 0.000000e+00) [K]
    Coulombic Real/kʙ      -4.597357e+04 (-5.209601e+04 +/- 0.000000e+00) [K]
    Coulombic Fourier/kʙ   -7.635626e+03 (-8.620367e+03 +/- 0.000000e+00) [K]
    Molecule Intra/kʙ       0.000000e+00 ( 0.000000e+00 +/- 0.000000e+00) [K]

Current cycle: 800 out of 6000
===============================================================================

Box:      25.63743   0.00000   0.00000  Average:  25.47642   0.00000   0.00000
           0.00000  25.63743   0.00000             0.00000  25.47642   0.00000
           0.00000   0.00000  25.63743             0.00000   0.00000  25.47642
Lengths:  25.63743  25.63743  25.63743  Average:  25.47642  25.47642  25.47642
Angles:   90.00000  90.00000  90.00000  Average:  90.00000  90.00000  90.00000
Rectangular boundary conditions

net charge:   0.00000000

component 0 (CO2) lambda:  0 occupancy:  0 (0.000000)
    net charge:   0.00000000 [e]

Amount of molecules per component :
-------------------------------------------------------------------------------
Component 0 (CO2)
    molecules:      1.910000e+02 molecules  (2.004919e+02 +/- 0.000000e+00)
    number density: 1.133469e-02 molec./A^3 (1.212994e-02 +/- 0.000000e+00)
    density:        8.281322e+02 kg/m^3     (8.862340e+02 +/- 0.000000e+00)

Average pressure tensor: 
-------------------------------------------------------------------------------
 3.7392e+01 -1.7778e+00 -2.1618e+00 +/- 0.0000e+00 0.0000e+00 0.0000e+00 [bar]
-1.7778e+00  9.1406e+01 -7.3881e+00 +/- 0.0000e+00 0.0000e+00 0.0000e+00 [bar]
-2.1618e+00 -7.3881e+00  4.0816e+00 +/- 0.0000e+00 0.0000e+00 0.0000e+00 [bar]
Ideal-gas pressure:   4.689217e+02 +/ 0.000000e+00 [bar]
Excess pressure:     -4.246287e+02 +/ 0.000000e+00 [bar]
Pressure:             4.429303e+01 +/ 0.000000e+00 [bar]

Total potential energy/kʙ  -2.245502e+05 (-2.483956e+05 +/- 0.000000e+00) [K]
-------------------------------------------------------------------------------
ExternalField-molecule
    Van der Waals/kʙ        0.000000e+00 ( 0.000000e+00 +/- 0.000000e+00) [K]
Framework-molecule
    Van der Waals/kʙ        0.000000e+00 ( 0.000000e+00 +/- 0.000000e+00) [K]
    Van der Waals (Tail)/kʙ 0.000000e+00 ( 0.000000e+00 +/- 0.000000e+00) [K]
    Coulombic Real/kʙ       0.000000e+00 ( 0.000000e+00 +/- 0.000000e+00) [K]
    Coulombic Fourier/kʙ    0.000000e+00 ( 0.000000e+00 +/- 0.000000e+00) [K]
Molecule-molecule
    Van der Waals/kʙ       -1.619972e+05 (-1.825435e+05 +/- 0.000000e+00) [K]
    Van der Waals (Tail)/kʙ-5.219399e+03 (-5.866221e+03 +/- 0.000000e+00) [K]
    Coulombic Real/kʙ      -4.969584e+04 (-5.143649e+04 +/- 0.000000e+00) [K]
    Coulombic Fourier/kʙ   -7.637712e+03 (-8.549382e+03 +/- 0.000000e+00) [K]
    Molecule Intra/kʙ       0.000000e+00 ( 0.000000e+00 +/- 0.000000e+00) [K]

Current cycle: 900 out of 6000
===============================================================================

Box:      26.74316   0.00000   0.00000  Average:  25.61335   0.00000   0.00000
           0.00000  26.74316   0.00000             0.00000  25.61335   0.00000
           0.00000   0.00000  26.74316             0.00000   0.00000  25.61335
Lengths:  26.74316  26.74316  26.74316  Average:  25.61335  25.61335  25.61335
Angles:   90.00000  90.00000  90.00000  Average:  90.00000  90.00000  90.00000
Rectangular boundary conditions

net charge:   0.00000000

component 0 (CO2) lambda:  0 occupancy:  0 (0.000000)
    net charge:   0.00000000 [e]

Amount of molecules per component :
-------------------------------------------------------------------------------
Component 0 (CO2)
    molecules:      2.180000e+02 molecules  (2.022153e+02 +/- 0.000000e+00)
    number density: 1.139773e-02 molec./A^3 (1.204259e-02 +/- 0.000000e+00)
    density:        8.327374e+02 kg/m^3     (8.798523e+02 +/- 0.000000e+00)

Average pressure tensor: 
-------------------------------------------------------------------------------
 3.1996e+01 -3.2442e+00 -8.5405e+00 +/- 0.0000e+00 0.0000e+00 0.0000e+00 [bar]
-3.2442e+00  7.9593e+01 -1.1516e+00 +/- 0.0000e+00 0.0000e+00 0.0000e+00 [bar]
-8.5405e+00 -1.1516e+00  9.5782e-01 +/- 0.0000e+00 0.0000e+00 0.0000e+00 [bar]
Ideal-gas pressure:   4.655450e+02 +/ 0.000000e+00 [bar]
Excess pressure:     -4.280296e+02 +/ 0.000000e+00 [bar]
Pressure:             3.751542e+01 +/ 0.000000e+00 [bar]

Total potential energy/kʙ  -2.569597e+05 (-2.488781e+05 +/- 0.000000e+00) [K]
-------------------------------------------------------------------------------
ExternalField-molecule
    Van der Waals/kʙ        0.000000e+00 ( 0.000000e+00 +/- 0.000000e+00) [K]
Framework-molecule
    Van der Waals/kʙ        0.000000e+00 ( 0.000000e+00 +/- 0.000000e+00) [K]
    Van der Waals (Tail)/kʙ 0.000000e+00 ( 0.000000e+00 +/- 0.000000e+00) [K]
    Coulombic Real/kʙ       0.000000e+00 ( 0.000000e+00 +/- 0.000000e+00) [K]
    Coulombic Fourier/kʙ    0.000000e+00 ( 0.000000e+00 +/- 0.000000e+00) [K]
Molecule-molecule
    Van der Waals/kʙ       -1.866079e+05 (-1.828538e+05 +/- 0.000000e+00) [K]
    Van der Waals (Tail)/kʙ-5.990348e+03 (-5.867744e+03 +/- 0.000000e+00) [K]
    Coulombic Real/kʙ      -5.629904e+04 (-5.160521e+04 +/- 0.000000e+00) [K]
    Coulombic Fourier/kʙ   -8.062505e+03 (-8.551317e+03 +/- 0.000000e+00) [K]
    Molecule Intra/kʙ       0.000000e+00 ( 0.000000e+00 +/- 0.000000e+00) [K]

Current cycle: 1000 out of 6000
===============================================================================

Box:      26.55366   0.00000   0.00000  Average:  25.70343   0.00000   0.00000
           0.00000  26.55366   0.00000             0.00000  25.70343   0.00000
           0.00000   0.00000  26.55366             0.00000   0.00000  25.70343
Lengths:  26.55366  26.55366  26.55366  Average:  25.70343  25.70343  25.70343
Angles:   90.00000  90.00000  90.00000  Average:  90.00000  90.00000  90.00000
Rectangular boundary conditions

net charge:   0.00000000

component 0 (CO2) lambda:  0 occupancy:  0 (0.000000)
    net charge:   0.00000000 [e]

Amount of molecules per component :
-------------------------------------------------------------------------------
Component 0 (CO2)
    molecules:      2.090000e+02 molecules  (2.033826e+02 +/- 0.000000e+00)
    number density: 1.116279e-02 molec./A^3 (1.198593e-02 +/- 0.000000e+00)
    density:        8.155729e+02 kg/m^3     (8.757129e+02 +/- 0.000000e+00)

Average pressure tensor: 
-------------------------------------------------------------------------------
 8.4946e+00 -7.3816e+00 -1.1466e+01 +/- 0.0000e+00 0.0000e+00 0.0000e+00 [bar]
-7.3816e+00  6.4130e+01 -6.6428e+00 +/- 0.0000e+00 0.0000e+00 0.0000e+00 [bar]
-1.1466e+01 -6.6428e+00  4.8710e+00 +/- 0.0000e+00 0.0000e+00 0.0000e+00 [bar]
Ideal-gas pressure:   4.633548e+02 +/ 0.000000e+00 [bar]
Excess pressure:     -4.375227e+02 +/ 0.000000e+00 [bar]
Pressure:             2.583203e+01 +/ 0.000000e+00 [bar]

Total potential energy/kʙ  -2.419341e+05 (-2.492175e+05 +/- 0.000000e+00) [K]
-------------------------------------------------------------------------------
ExternalField-molecule
    Van der Waals/kʙ        0.000000e+00 ( 0.000000e+00 +/- 0.000000e+00) [K]
Framework-molecule
    Van der Waals/kʙ        0.000000e+00 ( 0.000000e+00 +/- 0.000000e+00) [K]
    Van der Waals (Tail)/kʙ 0.000000e+00 ( 0.000000e+00 +/- 0.000000e+00) [K]
    Coulombic Real/kʙ       0.000000e+00 ( 0.000000e+00 +/- 0.000000e+00) [K]
    Coulombic Fourier/kʙ    0.000000e+00 ( 0.000000e+00 +/- 0.000000e+00) [K]
Molecule-molecule
    Van der Waals/kʙ       -1.748673e+05 (-1.830322e+05 +/- 0.000000e+00) [K]
    Van der Waals (Tail)/kʙ-5.624663e+03 (-5.869796e+03 +/- 0.000000e+00) [K]
    Coulombic Real/kʙ      -5.295301e+04 (-5.174705e+04 +/- 0.000000e+00) [K]
    Coulombic Fourier/kʙ   -8.489116e+03 (-8.568418e+03 +/- 0.000000e+00) [K]
    Molecule Intra/kʙ       0.000000e+00 ( 0.000000e+00 +/- 0.000000e+00) [K]

Current cycle: 1100 out of 6000
===============================================================================

Box:      26.68182   0.00000   0.00000  Average:  25.81997   0.00000   0.00000
           0.00000  26.68182   0.00000             0.00000  25.81997   0.00000
           0.00000   0.00000  26.68182             0.00000   0.00000  25.81997
Lengths:  26.68182  26.68182  26.68182  Average:  25.81997  25.81997  25.81997
Angles:   90.00000  90.00000  90.00000  Average:  90.00000  90.00000  90.00000
Rectangular boundary conditions

net charge:   0.00000000

component 0 (CO2) lambda:  0 occupancy:  0 (0.000000)
    net charge:   0.00000000 [e]

Amount of molecules per component :
-------------------------------------------------------------------------------
Component 0 (CO2)
    molecules:      2.060000e+02 molecules  (2.046094e+02 +/- 0.000000e+00)
    number density: 1.084478e-02 molec./A^3 (1.189989e-02 +/- 0.000000e+00)
    density:        7.923385e+02 kg/m^3     (8.694264e+02 +/- 0.000000e+00)

Average pressure tensor: 
-------------------------------------------------------------------------------
 1.0725e+01 -1.1395e+01 -9.8701e+00 +/- 0.0000e+00 0.0000e+00 0.0000e+00 [bar]
-1.1395e+01  6.2010e+01 -6.6022e+00 +/- 0.0000e+00 0.0000e+00 0.0000e+00 [bar]
-9.8701e+00 -6.6022e+00 -3.8769e+00 +/- 0.0000e+00 0.0000e+00 0.0000e+00 [bar]
Ideal-gas pressure:   4.600284e+02 +/ 0.000000e+00 [bar]
Excess pressure:     -4.370756e+02 +/ 0.000000e+00 [bar]
Pressure:             2.295286e+01 +/ 0.000000e+00 [bar]

Total potential energy/kʙ  -2.240804e+05 (-2.483179e+05 +/- 0.000000e+00) [K]
-------------------------------------------------------------------------------
ExternalField-molecule
    Van der Waals/kʙ        0.000000e+00 ( 0.000000e+00 +/- 0.000000e+00) [K]
Framework-molecule
    Van der Waals/kʙ        0.000000e+00 ( 0.000000e+00 +/- 0.000000e+00) [K]
    Van der Waals (Tail)/kʙ 0.000000e+00 ( 0.000000e+00 +/- 0.000000e+00) [K]
    Coulombic Real/kʙ       0.000000e+00 ( 0.000000e+00 +/- 0.000000e+00) [K]
    Coulombic Fourier/kʙ    0.000000e+00 ( 0.000000e+00 +/- 0.000000e+00) [K]
Molecule-molecule
    Van der Waals/kʙ       -1.658692e+05 (-1.823754e+05 +/- 0.000000e+00) [K]
    Van der Waals (Tail)/kʙ-5.385989e+03 (-5.842764e+03 +/- 0.000000e+00) [K]
    Coulombic Real/kʙ      -4.547293e+04 (-5.155794e+04 +/- 0.000000e+00) [K]
    Coulombic Fourier/kʙ   -7.352235e+03 (-8.541845e+03 +/- 0.000000e+00) [K]
    Molecule Intra/kʙ       0.000000e+00 ( 0.000000e+00 +/- 0.000000e+00) [K]

Current cycle: 1200 out of 6000
===============================================================================

Box:      26.22185   0.00000   0.00000  Average:  25.88233   0.00000   0.00000
           0.00000  26.22185   0.00000             0.00000  25.88233   0.00000
           0.00000   0.00000  26.22185             0.00000   0.00000  25.88233
Lengths:  26.22185  26.22185  26.22185  Average:  25.88233  25.88233  25.88233
Angles:   90.00000  90.00000  90.00000  Average:  90.00000  90.00000  90.00000
Rectangular boundary conditions

net charge:   0.00000000

component 0 (CO2) lambda:  0 occupancy:  0 (0.000000)
    net charge:   0.00000000 [e]

Amount of molecules per component :
-------------------------------------------------------------------------------
Component 0 (CO2)
    molecules:      2.090000e+02 molecules  (2.051982e+02 +/- 0.000000e+00)
    number density: 1.159195e-02 molec./A^3 (1.184918e-02 +/- 0.000000e+00)
    density:        8.469277e+02 kg/m^3     (8.657217e+02 +/- 0.000000e+00)

Average pressure tensor: 
-------------------------------------------------------------------------------
 1.2947e+01 -9.6583e+00 -4.0225e+00 +/- 0.0000e+00 0.0000e+00 0.0000e+00 [bar]
-9.6583e+00  4.5760e+01 -9.6107e+00 +/- 0.0000e+00 0.0000e+00 0.0000e+00 [bar]
-4.0225e+00 -9.6107e+00  6.5906e+00 +/- 0.0000e+00 0.0000e+00 0.0000e+00 [bar]
Ideal-gas pressure:   4.580683e+02 +/ 0.000000e+00 [bar]
Excess pressure:     -4.363025e+02 +/ 0.000000e+00 [bar]
Pressure:             2.176573e+01 +/ 0.000000e+00 [bar]

Total potential energy/kʙ  -2.488917e+05 (-2.485796e+05 +/- 0.000000e+00) [K]
-------------------------------------------------------------------------------
ExternalField-molecule
    Van der Waals/kʙ        0.000000e+00 ( 0.000000e+00 +/- 0.000000e+00) [K]
Framework-molecule
    Van der Waals/kʙ        0.000000e+00 ( 0.000000e+00 +/- 0.000000e+00) [K]
    Van der Waals (Tail)/kʙ 0.000000e+00 ( 0.000000e+00 +/- 0.000000e+00) [K]
    Coulombic Real/kʙ       0.000000e+00 ( 0.000000e+00 +/- 0.000000e+00) [K]
    Coulombic Fourier/kʙ    0.000000e+00 ( 0.000000e+00 +/- 0.000000e+00) [K]
Molecule-molecule
    Van der Waals/kʙ       -1.856435e+05 (-1.825900e+05 +/- 0.000000e+00) [K]
    Van der Waals (Tail)/kʙ-5.840904e+03 (-5.846716e+03 +/- 0.000000e+00) [K]
    Coulombic Real/kʙ      -5.003679e+04 (-5.159334e+04 +/- 0.000000e+00) [K]
    Coulombic Fourier/kʙ   -7.370558e+03 (-8.549503e+03 +/- 0.000000e+00) [K]
    Molecule Intra/kʙ       0.000000e+00 ( 0.000000e+00 +/- 0.000000e+00) [K]

Current cycle: 1300 out of 6000
===============================================================================

Box:      25.93018   0.00000   0.00000  Average:  25.86618   0.00000   0.00000
           0.00000  25.93018   0.00000             0.00000  25.86618   0.00000
           0.00000   0.00000  25.93018             0.00000   0.00000  25.86618
Lengths:  25.93018  25.93018  25.93018  Average:  25.86618  25.86618  25.86618
Angles:   90.00000  90.00000  90.00000  Average:  90.00000  90.00000  90.00000
Rectangular boundary conditions

net charge:   0.00000000

component 0 (CO2) lambda:  0 occupancy:  0 (0.000000)
    net charge:   0.00000000 [e]

Amount of molecules per component :
-------------------------------------------------------------------------------
Component 0 (CO2)
    molecules:      1.980000e+02 molecules  (2.051706e+02 +/- 0.000000e+00)
    number density: 1.135660e-02 molec./A^3 (1.186906e-02 +/- 0.000000e+00)
    density:        8.297327e+02 kg/m^3     (8.671741e+02 +/- 0.000000e+00)

Average pressure tensor: 
-------------------------------------------------------------------------------
 2.8573e+01 -9.2749e+00  2.5011e+00 +/- 0.0000e+00 0.0000e+00 0.0000e+00 [bar]
-9.2749e+00  4.5086e+01 -1.3337e+01 +/- 0.0000e+00 0.0000e+00 0.0000e+00 [bar]
 2.5011e+00 -1.3337e+01  1.5297e+01 +/- 0.0000e+00 0.0000e+00 0.0000e+00 [bar]
Ideal-gas pressure:   4.588367e+02 +/ 0.000000e+00 [bar]
Excess pressure:     -4.291847e+02 +/ 0.000000e+00 [bar]
Pressure:             2.965200e+01 +/ 0.000000e+00 [bar]

Total potential energy/kʙ  -2.371639e+05 (-2.491229e+05 +/- 0.000000e+00) [K]
-------------------------------------------------------------------------------
ExternalField-molecule
    Van der Waals/kʙ        0.000000e+00 ( 0.000000e+00 +/- 0.000000e+00) [K]
Framework-molecule
    Van der Waals/kʙ        0.000000e+00 ( 0.000000e+00 +/- 0.000000e+00) [K]
    Van der Waals (Tail)/kʙ 0.000000e+00 ( 0.000000e+00 +/- 0.000000e+00) [K]
    Coulombic Real/kʙ       0.000000e+00 ( 0.000000e+00 +/- 0.000000e+00) [K]
    Coulombic Fourier/kʙ    0.000000e+00 ( 0.000000e+00 +/- 0.000000e+00) [K]
Molecule-molecule
    Van der Waals/kʙ       -1.770512e+05 (-1.830394e+05 +/- 0.000000e+00) [K]
    Van der Waals (Tail)/kʙ-5.421143e+03 (-5.862307e+03 +/- 0.000000e+00) [K]
    Coulombic Real/kʙ      -4.712455e+04 (-5.166529e+04 +/- 0.000000e+00) [K]
    Coulombic Fourier/kʙ   -7.566997e+03 (-8.555861e+03 +/- 0.000000e+00) [K]
    Molecule Intra/kʙ       0.000000e+00 ( 0.000000e+00 +/- 0.000000e+00) [K]

Current cycle: 1400 out of 6000
===============================================================================

Box:      26.08724   0.00000   0.00000  Average:  25.87597   0.00000   0.00000
           0.00000  26.08724   0.00000             0.00000  25.87597   0.00000
           0.00000   0.00000  26.08724             0.00000   0.00000  25.87597
Lengths:  26.08724  26.08724  26.08724  Average:  25.87597  25.87597  25.87597
Angles:   90.00000  90.00000  90.00000  Average:  90.00000  90.00000  90.00000
Rectangular boundary conditions

net charge:   0.00000000

component 0 (CO2) lambda:  0 occupancy:  0 (0.000000)
    net charge:   0.00000000 [e]

Amount of molecules per component :
-------------------------------------------------------------------------------
Component 0 (CO2)
    molecules:      2.020000e+02 molecules  (2.052634e+02 +/- 0.000000e+00)
    number density: 1.137803e-02 molec./A^3 (1.186029e-02 +/- 0.000000e+00)
    density:        8.312981e+02 kg/m^3     (8.665330e+02 +/- 0.000000e+00)

Average pressure tensor: 
-------------------------------------------------------------------------------
 3.2942e+01 -4.5209e+00  7.8450e+00 +/- 0.0000e+00 0.0000e+00 0.0000e+00 [bar]
-4.5209e+00  4.8612e+01 -1.2115e+01 +/- 0.0000e+00 0.0000e+00 0.0000e+00 [bar]
 7.8450e+00 -1.2115e+01  2.0668e+01 +/- 0.0000e+00 0.0000e+00 0.0000e+00 [bar]
Ideal-gas pressure:   4.584975e+02 +/ 0.000000e+00 [bar]
Excess pressure:     -4.244236e+02 +/ 0.000000e+00 [bar]
Pressure:             3.407388e+01 +/ 0.000000e+00 [bar]

Total potential energy/kʙ  -2.260479e+05 (-2.490672e+05 +/- 0.000000e+00) [K]
-------------------------------------------------------------------------------
ExternalField-molecule
    Van der Waals/kʙ        0.000000e+00 ( 0.000000e+00 +/- 0.000000e+00) [K]
Framework-molecule
    Van der Waals/kʙ        0.000000e+00 ( 0.000000e+00 +/- 0.000000e+00) [K]
    Van der Waals (Tail)/kʙ 0.000000e+00 ( 0.000000e+00 +/- 0.000000e+00) [K]
    Coulombic Real/kʙ       0.000000e+00 ( 0.000000e+00 +/- 0.000000e+00) [K]
    Coulombic Fourier/kʙ    0.000000e+00 ( 0.000000e+00 +/- 0.000000e+00) [K]
Molecule-molecule
    Van der Waals/kʙ       -1.729775e+05 (-1.831266e+05 +/- 0.000000e+00) [K]
    Van der Waals (Tail)/kʙ-5.541095e+03 (-5.870061e+03 +/- 0.000000e+00) [K]
    Coulombic Real/kʙ      -4.099399e+04 (-5.153639e+04 +/- 0.000000e+00) [K]
    Coulombic Fourier/kʙ   -6.535349e+03 (-8.534144e+03 +/- 0.000000e+00) [K]
    Molecule Intra/kʙ       0.000000e+00 ( 0.000000e+00 +/- 0.000000e+00) [K]

Current cycle: 1500 out of 6000
===============================================================================

Box:      25.44799   0.00000   0.00000  Average:  25.88222   0.00000   0.00000
           0.00000  25.44799   0.00000             0.00000  25.88222   0.00000
           0.00000   0.00000  25.44799             0.00000   0.00000  25.88222
Lengths:  25.44799  25.44799  25.44799  Average:  25.88222  25.88222  25.88222
[...]
    number density: 1.275777e-02 molec./A^3 (1.214080e-02 +/- 2.385602e-04)
    density:        9.321047e+02 kg/m^3     (8.870279e+02 +/- 1.742962e+01)

Average pressure tensor: 
-------------------------------------------------------------------------------
 4.5075e+01 -4.5191e+00  6.2687e-01 +/- 6.8599e+01 2.4654e+01 1.4194e+01 [bar]
-4.5191e+00  3.9347e+01  1.9274e+00 +/- 2.4654e+01 5.2013e+01 3.1941e+01 [bar]
 6.2687e-01  1.9274e+00  3.4761e+01 +/- 1.4194e+01 3.1941e+01 5.3500e+01 [bar]
Ideal-gas pressure:   4.693417e+02 +/ 9.222310e+00 [bar]
Excess pressure:     -4.296142e+02 +/ 5.026951e+01 [bar]
Pressure:             3.972753e+01 +/ 4.745315e+01 [bar]

Total potential energy/kʙ  -2.023550e+05 (-2.433698e+05 +/- 1.282523e+04) [K]
-------------------------------------------------------------------------------
ExternalField-molecule
    Van der Waals/kʙ        0.000000e+00 ( 0.000000e+00 +/- 0.000000e+00) [K]
Framework-molecule
    Van der Waals/kʙ        0.000000e+00 ( 0.000000e+00 +/- 0.000000e+00) [K]
    Van der Waals (Tail)/kʙ 0.000000e+00 ( 0.000000e+00 +/- 0.000000e+00) [K]
    Coulombic Real/kʙ       0.000000e+00 ( 0.000000e+00 +/- 0.000000e+00) [K]
    Coulombic Fourier/kʙ    0.000000e+00 ( 0.000000e+00 +/- 0.000000e+00) [K]
Molecule-molecule
    Van der Waals/kʙ       -1.523363e+05 (-1.794036e+05 +/- 8.820920e+03) [K]
    Van der Waals (Tail)/kʙ-4.951970e+03 (-5.765808e+03 +/- 2.921270e+02) [K]
    Coulombic Real/kʙ      -3.868583e+04 (-4.986860e+04 +/- 3.223816e+03) [K]
    Coulombic Fourier/kʙ   -6.380848e+03 (-8.331858e+03 +/- 5.125393e+02) [K]
    Molecule Intra/kʙ       0.000000e+00 ( 0.000000e+00 +/- 0.000000e+00) [K]

Current cycle: 5800 out of 6000
===============================================================================

Box:      23.47091   0.00000   0.00000  Average:  25.28364   0.00000   0.00000
           0.00000  23.47091   0.00000             0.00000  25.28364   0.00000
           0.00000   0.00000  23.47091             0.00000   0.00000  25.28364
Lengths:  23.47091  23.47091  23.47091  Average:  25.28364  25.28364  25.28364
Angles:   90.00000  90.00000  90.00000  Average:  90.00000  90.00000  90.00000
Rectangular boundary conditions

net charge:   0.00000000

component 0 (CO2) lambda:  0 occupancy:  0 (0.000000)
    net charge:   0.00000000 [e]

Amount of molecules per component :
-------------------------------------------------------------------------------
Component 0 (CO2)
    molecules:      1.620000e+02 molecules  (1.963051e+02 +/- 1.232252e+01)
    number density: 1.252926e-02 molec./A^3 (1.214680e-02 +/- 2.432101e-04)
    density:        9.154089e+02 kg/m^3     (8.874659e+02 +/- 1.776935e+01)

Average pressure tensor: 
-------------------------------------------------------------------------------
 4.4587e+01 -6.1842e+00  1.5643e+00 +/- 6.8672e+01 2.7151e+01 1.5650e+01 [bar]
-6.1842e+00  3.8583e+01  3.0743e+00 +/- 2.7151e+01 5.0118e+01 3.2898e+01 [bar]
 1.5643e+00  3.0743e+00  3.4158e+01 +/- 1.5650e+01 3.2898e+01 5.2585e+01 [bar]
Ideal-gas pressure:   4.695735e+02 +/ 9.402067e+00 [bar]
Excess pressure:     -4.304644e+02 +/ 4.985070e+01 [bar]
Pressure:             3.910915e+01 +/ 4.676168e+01 [bar]

Total potential energy/kʙ  -2.011847e+05 (-2.427071e+05 +/- 1.384981e+04) [K]
-------------------------------------------------------------------------------
ExternalField-molecule
    Van der Waals/kʙ        0.000000e+00 ( 0.000000e+00 +/- 0.000000e+00) [K]
Framework-molecule
    Van der Waals/kʙ        0.000000e+00 ( 0.000000e+00 +/- 0.000000e+00) [K]
    Van der Waals (Tail)/kʙ 0.000000e+00 ( 0.000000e+00 +/- 0.000000e+00) [K]
    Coulombic Real/kʙ       0.000000e+00 ( 0.000000e+00 +/- 0.000000e+00) [K]
    Coulombic Fourier/kʙ    0.000000e+00 ( 0.000000e+00 +/- 0.000000e+00) [K]
Molecule-molecule
    Van der Waals/kʙ       -1.492290e+05 (-1.789293e+05 +/- 9.579567e+03) [K]
    Van der Waals (Tail)/kʙ-4.893478e+03 (-5.750814e+03 +/- 3.151710e+02) [K]
    Coulombic Real/kʙ      -3.975825e+04 (-4.971655e+04 +/- 3.439364e+03) [K]
    Coulombic Fourier/kʙ   -7.303912e+03 (-8.310368e+03 +/- 5.386834e+02) [K]
    Molecule Intra/kʙ       0.000000e+00 ( 0.000000e+00 +/- 0.000000e+00) [K]

Current cycle: 5900 out of 6000
===============================================================================

Box:      23.29353   0.00000   0.00000  Average:  25.25143   0.00000   0.00000
           0.00000  23.29353   0.00000             0.00000  25.25143   0.00000
           0.00000   0.00000  23.29353             0.00000   0.00000  25.25143
Lengths:  23.29353  23.29353  23.29353  Average:  25.25143  25.25143  25.25143
Angles:   90.00000  90.00000  90.00000  Average:  90.00000  90.00000  90.00000
Rectangular boundary conditions

net charge:   0.00000000

component 0 (CO2) lambda:  0 occupancy:  0 (0.000000)
    net charge:   0.00000000 [e]

Amount of molecules per component :
-------------------------------------------------------------------------------
Component 0 (CO2)
    molecules:      1.620000e+02 molecules  (1.957397e+02 +/- 1.307767e+01)
    number density: 1.281768e-02 molec./A^3 (1.215693e-02 +/- 2.537759e-04)
    density:        9.364813e+02 kg/m^3     (8.882058e+02 +/- 1.854130e+01)

Average pressure tensor: 
-------------------------------------------------------------------------------
 4.8392e+01 -5.6383e+00  3.6293e-01 +/- 6.7175e+01 2.5350e+01 1.3085e+01 [bar]
-5.6383e+00  4.0566e+01  3.3434e+00 +/- 2.5350e+01 4.0789e+01 3.1253e+01 [bar]
 3.6293e-01  3.3434e+00  3.6869e+01 +/- 1.3085e+01 3.1253e+01 4.5804e+01 [bar]
Ideal-gas pressure:   4.699650e+02 +/ 9.810521e+00 [bar]
Excess pressure:     -4.280227e+02 +/ 4.277829e+01 [bar]
Pressure:             4.194230e+01 +/ 3.975147e+01 [bar]

Total potential energy/kʙ  -2.094598e+05 (-2.421701e+05 +/- 1.442502e+04) [K]
-------------------------------------------------------------------------------
ExternalField-molecule
    Van der Waals/kʙ        0.000000e+00 ( 0.000000e+00 +/- 0.000000e+00) [K]
Framework-molecule
    Van der Waals/kʙ        0.000000e+00 ( 0.000000e+00 +/- 0.000000e+00) [K]
    Van der Waals (Tail)/kʙ 0.000000e+00 ( 0.000000e+00 +/- 0.000000e+00) [K]
    Coulombic Real/kʙ       0.000000e+00 ( 0.000000e+00 +/- 0.000000e+00) [K]
    Coulombic Fourier/kʙ    0.000000e+00 ( 0.000000e+00 +/- 0.000000e+00) [K]
Molecule-molecule
    Van der Waals/kʙ       -1.514461e+05 (-1.785365e+05 +/- 1.003528e+04) [K]
    Van der Waals (Tail)/kʙ-5.006124e+03 (-5.739608e+03 +/- 3.254624e+02) [K]
    Coulombic Real/kʙ      -4.570083e+04 (-4.960317e+04 +/- 3.530479e+03) [K]
    Coulombic Fourier/kʙ   -7.306709e+03 (-8.290906e+03 +/- 5.569649e+02) [K]
    Molecule Intra/kʙ       0.000000e+00 ( 0.000000e+00 +/- 0.000000e+00) [K]


Energy statistics             |  Energy [K]   | Recomputed [K]|  Drift [K]    |
===============================================================================
Total potential energy/kʙ     | -2.212807e+05 | -2.215896e+05 |  3.088737e+02 |
    external field VDW/kʙ     |  0.000000e+00 |  0.000000e+00 |  0.000000e+00 |
    external field Real/kʙ    |  0.000000e+00 |  0.000000e+00 |  0.000000e+00 |
    framework-molecule VDW/kʙ |  0.000000e+00 |  0.000000e+00 |  0.000000e+00 |
    framework-molecule Real/kʙ|  0.000000e+00 |  0.000000e+00 |  0.000000e+00 |
    molecule-molecule VDW/kʙ  | -1.665814e+05 | -1.668905e+05 |  3.090947e+02 |
    molecule-molecule Real/kʙ | -4.198367e+04 | -4.198345e+04 | -2.209508e-01 |
    Van der Waals (Tail)/kʙ   | -5.327396e+03 | -5.327396e+03 |  1.859581e-11 |
    Ewald Fourier/kʙ          |  8.405005e+03 |  8.405005e+03 | -1.422033e-11 |
    Ewald self/kʙ             | -3.500653e+06 | -3.500653e+06 |  0.000000e+00 |
    Ewald exclusion/kʙ        |  3.484860e+06 |  3.484860e+06 |  0.000000e+00 |
    intra VDW/kʙ              |  0.000000e+00 |  0.000000e+00 |  0.000000e+00 |
    intra Coulombic/kʙ        |  0.000000e+00 |  0.000000e+00 |  0.000000e+00 |
    polarization/kʙ           |  0.000000e+00 |  0.000000e+00 |  0.000000e+00 |
    dU/dlambda VDW/kʙ         |  0.000000e+00 |  0.000000e+00 |  0.000000e+00 |
    dU/dlambda Real/kʙ        |  0.000000e+00 |  0.000000e+00 |  0.000000e+00 |
    dU/dlambda Ewald/kʙ       |  0.000000e+00 |  0.000000e+00 |  0.000000e+00 |
-------------------------------------------------------------------------------


Monte-Carlo moves statistics
===============================================================================

    Gibbs volume         all:                2957
    Gibbs volume         total:              5984
    Gibbs volume         constructed:        5984
    Gibbs volume         accepted:           3517
    Gibbs volume         fraction:       0.587734
    Gibbs volume         max-change:     0.060820

Component 0 [CO2]
    Reinsertion (CBMC)   all:              148667
    Reinsertion (CBMC)   total:            148667
    Reinsertion (CBMC)   constructed:      145634
    Reinsertion (CBMC)   accepted:          13866
    Reinsertion (CBMC)   fraction:       0.093269
    Reinsertion (CBMC)   max-change:     0.000000

    Gibbs swap (CBMC)    all:              299340
    Gibbs swap (CBMC)    total:            598425
    Gibbs swap (CBMC)    constructed:      592008
    Gibbs swap (CBMC)    accepted:         110147
    Gibbs swap (CBMC)    fraction:       0.184061
    Gibbs swap (CBMC)    max-change:     0.000000

    Translation          all:              149896
    Translation          total:             49626      50383      49887
    Translation          constructed:       49504      50383      49880
    Translation          accepted:          20134      28214      23550
    Translation          fraction:       0.405715   0.559990   0.472067
    Translation          max-change:     0.949154   0.787598   0.894814

    Rotation             all:              149641
    Rotation             total:             50388      49788      49465
    Rotation             constructed:       50329      49788      49465
    Rotation             accepted:          21534      29594      29036
    Rotation             fraction:       0.427364   0.594400   0.587001
    Rotation             max-change:     1.001603   0.756262   0.744154



Production run counting of the MC moves summed over systems and components
===============================================================================

Reinsertion (CBMC)                   297462 (19.8308 [%])
Gibbs volume                           5984 (0.3989 [%])
Gibbs swap (CBMC)                    598425 (39.8950 [%])
Translation                          299228 (19.9485 [%])
Rotation                             298901 (19.9267 [%])

Production count MC-steps:          1500000 [-]
               All summed:          1500000 [-]
               difference:                0 [-]


Production run CPU timings of the MC moves
===============================================================================

Component 0 CO2

Rotation                             14.566792 [s]
    Ewald                             5.457505 [s]
    ExternalField-Molecule            0.006621 [s]
    Framework-Molecule                0.009051 [s]
    Molecule-Molecule                 8.483100 [s]
    Overhead                          0.610515 [s]

Reinsertion (CBMC)                   71.805198 [s]
    Ewald                             5.418201 [s]
    NonEwald                         66.134308 [s]
    Overhead                          0.252689 [s]

Translation                          14.608219 [s]
    Ewald                             5.464368 [s]
    ExternalField-Molecule            0.006652 [s]
    Framework-Molecule                0.014159 [s]
    Molecule-Molecule                 8.555499 [s]
    Overhead                          0.567541 [s]



Gibbs swap (CBMC)                   108.985574 [s]
    Ewald                            14.025252 [s]
    NonEwald                         92.898055 [s]
    Tail                              0.956429 [s]

Gibbs volume                         15.318007 [s]
    Ewald                             5.321036 [s]
    NonEwald                          9.328155 [s]
    Tail                              0.483933 [s]

Property sampling                     0.901903 [s]
Energy/pressure sampling:             5.245880 [s]


Production run CPU timings of the MC moves summed over systems and components
===============================================================================


Translation                          20.686466 [s]
    Ewald                             9.293791 [s]
    ExternalField-Molecule            0.013620 [s]
    Framework-Molecule                0.025853 [s]
    Molecule-Molecule                10.218841 [s]
    Overhead                          1.134361 [s]

Rotation                             20.633094 [s]
    Ewald                             9.276696 [s]
    ExternalField-Molecule            0.013395 [s]
    Framework-Molecule                0.018001 [s]
    Molecule-Molecule                10.132420 [s]
    Overhead                          1.192582 [s]

Reinsertion (CBMC)                   92.393202 [s]
    Ewald                             9.276515 [s]
    NonEwald                         82.427658 [s]
    Overhead                          0.689029 [s]

Gibbs volume                         30.880390 [s]
    Ewald                            10.687241 [s]
    NonEwald                         18.865121 [s]
    Tail                              0.958899 [s]
    Overhead                          0.369129 [s]

Gibbs swap (CBMC)                   242.033825 [s]
    Ewald                            28.333441 [s]
    NonEwald                        209.450655 [s]
    Tail                              1.961867 [s]
    Overhead                          2.287862 [s]

Property sampling:                    1.648435 [s]
Energy/pressure sampling:             5.948708 [s]

Production simulation time:         416.566968 [s]
                All summed:         414.224120 [s]
                  Overhead:           2.342848 [s]


Initalization simulation time:      127.277682 [s]
Equilibration simulation time:        0.000000 [s]
Production simulation time:         416.566968 [s]
Total simulation time:              543.844650 [s]


Energy averages and statistics:
===============================================================================

Framework-molecule energy:
-------------------------------------------------------------------------------



Framework-molecule energy contributions per energy type:
-------------------------------------------------------------------------------



Inter-molecular energy:
-------------------------------------------------------------------------------

    Inter-molecular energy/kʙ 0-0 [CO2-CO2]:
    ---------------------------------------------------------------------------
        Block[  0] -2.485770e+05
        Block[  1] -2.495721e+05
        Block[  2] -2.387806e+05
        Block[  3] -2.496909e+05
        Block[  4] -2.232900e+05
        -----------------------------------------------------------------------
        Average  -2.419821e+05 +/-  1.415720e+04 [K]



Inter-molecular energy contributions per energy type:
-------------------------------------------------------------------------------

    Van der Waals energy/kʙ 0-0 [CO2-CO2]:
    ---------------------------------------------------------------------------
        Block[  0] -1.825646e+05
        Block[  1] -1.838725e+05
        Block[  2] -1.763773e+05
        Block[  3] -1.838653e+05
        Block[  4] -1.651729e+05
        -----------------------------------------------------------------------
        Average  -1.783705e+05 +/-  9.935723e+03 [K]

    VDW Tail-Correction energy/kʙ 0-0 [CO2-CO2]:
    ---------------------------------------------------------------------------
        Block[  0] -5.846765e+03
        Block[  1] -5.918657e+03
        Block[  2] -5.673329e+03
        Block[  3] -5.925459e+03
        Block[  4] -5.307595e+03
        -----------------------------------------------------------------------
        Average  -5.734361e+03 +/-  3.219274e+02 [K]

    Coulomb Real energy/kʙ 0-0 [CO2-CO2]:
    ---------------------------------------------------------------------------
        Block[  0] -5.160631e+04
        Block[  1] -5.123522e+04
        Block[  2] -4.854932e+04
        Block[  3] -5.132169e+04
        Block[  4] -4.522835e+04
        -----------------------------------------------------------------------
        Average  -4.958818e+04 +/-  3.392969e+03 [K]

    Coulomb Fourier energy/kʙ 0-0 [CO2-CO2]:
    ---------------------------------------------------------------------------
        Block[  0] -8.559327e+03
        Block[  1] -8.545693e+03
        Block[  2] -8.180582e+03
        Block[  3] -8.578401e+03
        Block[  4] -7.581186e+03
        -----------------------------------------------------------------------
        Average  -8.289038e+03 +/-  5.323399e+02 [K]


Total energy/kʙ
-------------------------------------------------------------------------------
    Block[  0] -2.485770e+05
    Block[  1] -2.495721e+05
    Block[  2] -2.387806e+05
    Block[  3] -2.496909e+05
    Block[  4] -2.232900e+05
    ---------------------------------------------------------------------------
    Average  -2.419821e+05 +/-  1.415720e+04 [K]

Pressure averages and statistics:
===============================================================================

Average pressure tensor: 
-------------------------------------------------------------------------------
 5.0899e+01 -6.8453e+00 -7.7227e-01 +/- 6.7342e+01 2.6774e+01 1.1820e+01 [bar]
-6.8453e+00  3.9401e+01  3.7473e+00 +/- 2.6774e+01 4.1354e+01 3.0325e+01 [bar]
-7.7227e-01  3.7473e+00  4.0546e+01 +/- 1.1820e+01 3.0325e+01 4.0453e+01 [bar]

    Block[  0]  4.580765e+07
    Block[  1]  4.716476e+07
    Block[  2]  4.763442e+07
    Block[  3]  4.669394e+07
    Block[  4]  4.791705e+07
    ---------------------------------------------------------------------------
    Ideal gas pressure   4.704356e+07 +/-  6.228772e-02 [Pa]
                         4.704356e+02 +/-  1.034313e+01 [bar]


    Block[  0] -4.362867e+07
    Block[  1] -4.179523e+07
    Block[  2] -4.451636e+07
    Block[  3] -3.761018e+07
    Block[  4] -4.585964e+07
    ---------------------------------------------------------------------------
    Excess pressure  -4.268202e+07 +/-  3.968230e+06 [Pa]
                     -4.268202e+02 +/-  3.968230e+01 [bar]


    Block[  0]  2.178989e+06
    Block[  1]  5.369531e+06
    Block[  2]  3.118055e+06
    Block[  3]  9.083754e+06
    Block[  4]  2.057410e+06
    ---------------------------------------------------------------------------
    Pressure average   4.361548e+06 +/-  3.668846e+06 [Pa]
                       4.361548e+01 +/-  3.668846e+01 [bar]


Enthalpy of adsorption
===============================================================================

Component 0 [CO2]
-------------------------------------------------------------------------------
    Block[  0] -1.444354e+03
    Block[  1] -1.794659e+03
    Block[  2] -1.790739e+03
    Block[  3] -1.177595e+03
    Block[  4] -1.563379e+03
    ---------------------------------------------------------------------------
    Enthalpy of adsorption: -1.554145e+03 +/-  3.211968e+02 [K]
                            -1.292188e+01 +/-  2.670579e+00 [kJ/mol]
    Warning: need to subtract the ideal-gas energy.


Densities
===============================================================================

Component 0 (CO2)
    Block[  0] 205.19500000000002
    Block[  1] 200.47083333333336
    Block[  2] 190.62583333333333
    Block[  3] 201.74083333333334
    Block[  4] 178.83666666666667
    -----------------------------------------------------------------------
    Density average   1.953738e+02 +/-  1.329867e+01 [molecules]
    Density average   1.216910e-02 +/-  2.675531e-04 [molec/A^3]
    Density average   8.890953e+02 +/-  1.954789e+01 [kg.m⁻³]

