Compiler and run-time data
===============================================================================
RASPA 3.0.4

Random seed: 2033382345

Compiled as a 64-bits application
Compiler: gcc Clang 18.1.8
Compile Date = Mar 15 2025, Compile Time = 19:38:51

2025-06-03 15:51:59.360983
Simulation started on Tue, Jun 03
The start time was 15:51:00

Hostname:    1NNMVV3
OS type:     Linux on x86_64
OS release:  5.15.167.4-microsoft-standard-WSL2
OS version:  #1 SMP Tue Nov 5 00:21:55 UTC 2024


Mutual consistent basic set of units:
===============================================================================

Unit of temperature: 1 [K]
Unit of length:      1e-10 [m]
Unit of time:        1e-12 [s]
Unit of mass:        1.6605402e-27 [kg]
Unit of charge:      1.60217733e-19 [C/particle]


Boltzmann constant (internal units):          0.8314464919307584 [-]
represents conversion from energy (internal units) to temperature (in Kelvin)

Derived units and their conversion factors:
===============================================================================

Unit of energy:                           1.6605402000000002e-23 [J]
Unit of energy:                           10.000008872307538 [J.mol⁻¹]
Unit of velocity:                         100 [m.s⁻¹]
Unit of force:                            1.6605402000000002e-13 [N]
Unit of diffusion:                        1.0000000000000002e-08 [m².s⁻¹]
Unit of acceleration:                     1.0000000000000002e-08 [m².s⁻¹]
Unit of torque:                           1.6605402000000002e-23 [N.m]
Unit of pressure:                         16605402 [Pa]
Unit of volume:                           1e-30 [m³]
Unit of density:                          1660.5402 [kg.m⁻³]
Unit of dynamic viscosity:                1.6605401999999997e-05 [N.s.m⁻²]
Unit of enthalpy:                         1.6605402000000002e-23 [J]
Unit of polarizability:                   1.5458657349975198e-35 [-]
Unit of Coulomb potential:                167101.08000665612 [K]
Unit of dielectric constant:              1.5458657349975193e-05 [s².C².kg⁻¹.m⁻³]
Unit of dipole moment:                    1.60217733e-29 [C.m]
Unit of Debye:                            4.803206799099162 [C.m]
Unit of electric potential:               0.00010364272224473431 [V]
Unit of electric field:                   1036427.222447343 [V.m⁻¹]
Unit of isothermal compressibility:       6.02213665167516e-08 [Pa⁻¹]
Unit of heat capacity:                    10.000008872307538 [J.mol⁻¹.K⁻¹]
Unit of volumetric expansion coefficient: 1 [K⁻¹]


Internal conversion factors:
===============================================================================

Energy (internal units) to Kelvin:      1.202724284692786 [-]
Kelvin to energy (internal units):      0.8314457542157567 [-]


System definitions
===============================================================================

Temperature:          280 [K]
Beta:                 0.004295440062697377 [-]
Pressure:             0 [Pa]
Helium void fraction: 1 [-]

Box:      30.00000   0.00000   0.00000
           0.00000  30.00000   0.00000
           0.00000   0.00000  30.00000
Lengths:  30.00000  30.00000  30.00000
Angles:   90.00000  90.00000  90.00000
Rectangular boundary conditions



Property measurement settings
===============================================================================




Pseudo-atoms
===============================================================================

  0 - C_co2    framework-atom: false
  1 - O_co2    framework-atom: false

  0 - C_co2    mass: 12.00000, charge:  0.70000
  1 - O_co2    mass: 15.99940, charge: -0.35000

  0 - C_co2    polarizability:  0.00000
  1 - O_co2    polarizability:  0.00000

  0 - J. J. Potoff et al., AIChE J. 2001, 47, 1676–1682.
  1 - J. J. Potoff et al., AIChE J. 2001, 47, 1676–1682.

Force field status
===============================================================================

Cutoff Framework-Molecule VDW:  12.00000 [Å]
Cutoff Molecule-Molecule VDW:   12.00000 [Å]
Cutoff Coulomb:                 12.00000 [Å]

Overlap-criteria VDW:           1.000000e+05 [K]

C_co2    - C_co2    Lennard-Jones p₀/kʙ:  27.00000 [K], p₁:  2.80000 [Å]
                                  shift:   0.00000 [K], tailcorrections: true
C_co2    - O_co2    Lennard-Jones p₀/kʙ:  46.18441 [K], p₁:  2.92500 [Å]
                                  shift:   0.00000 [K], tailcorrections: true
O_co2    - O_co2    Lennard-Jones p₀/kʙ:  79.00000 [K], p₁:  3.05000 [Å]
                                  shift:   0.00000 [K], tailcorrections: true

Ewald precision: 1e-06
Ewald alpha: 0.26505830360350674
Ewald k-vectors: 8 8 8


Component definitions
===============================================================================

Component 0 [CO2]

    Type: Adsorbate

    Critical temperature:  304.1282 [K]
    Critical pressure:     7377300 [Pa]
    Acentric factor:       0.22394 [-]

    Mol-fraction:                 1 [-]
    Swappable:                   true

    Mass:                         43.9988 [-]
    Fugacity coefficient:         -nan [-]
    Bulk fluid density:           0 [-]
    Compressibility:              1 [-]
    Excess molecules:             0 [-]

    Number Of Atoms:    3
    CBMC starting bead: 0
      0: O_co2  position  0.00000 -0.00000  1.16000, charge -0.35000
      1: C_co2  position  0.00000 -0.00000  0.00000, charge  0.70000
      2: O_co2  position  0.00000 -0.00000 -1.16000, charge -0.35000
    Diagonalized inertia-vector:      43.05758528 43.05758528 0.00000000
    Translational degrees of freedom: 3
    Rotational degrees of freedom:    2
    Shape of the molecule is: 'Linear'
    Net-charge:        0.00000000 [e]

    Move probabilities:
    Translation:                   0.199203 [-]
    Random translation:            0.000000 [-]
    Rotation:                      0.199203 [-]
    Random rotation:               0.000000 [-]
    Volume change:                 0.000000 [-]
    Reinsertion (CBMC):            0.199203 [-]
    Identity change (CBMC):        0.000000 [-]
    Swap:                          0.000000 [-]
    Swap (CBMC):                   0.000000 [-]
    Swap (CFCMC):                  0.000000 [-]
    Swap (CB/CFCMC):               0.000000 [-]
    Gibbs volume:                  0.003984 [-]
    Gibbs swap (CBMC):             0.398406 [-]
    Gibbs swap (CFCMC):            0.000000 [-]
    Widom:                         0.000000 [-]
    Widom (CFCMC):                 0.000000 [-]
    Widom (CB/CFCMC):              0.000000 [-]
    Parallel tempering:            0.000000 [-]
    Hybrid MC:                     0.000000 [-]

    number of blocking-pockets: 0

    number of bonds: 0





Number of pseudo-atoms
===============================================================================

Component   0 (CO2)
-------------------------------------------------------------------------------
    index   0 (C_co2): 40 atoms
    index   1 (O_co2): 80 atoms

Total number of pseudo-atoms:
-------------------------------------------------------------------------------
    index   0 (C_co2): 40 atoms
    index   1 (O_co2): 80 atoms




Energy status Recomputed from scratch
===============================================================================

Total potential energy/kʙ       -5.411899e+03 [K]
    external field VDW/kʙ        0.000000e+00 [K]
    external field Real/kʙ       0.000000e+00 [K]
    framework-molecule VDW/kʙ    0.000000e+00 [K]
    framework-molecule Real/kʙ   0.000000e+00 [K]
    molecule-molecule VDW/kʙ    -5.173937e+03 [K]
    molecule-molecule Real/kʙ   -1.653036e+02 [K]
    Van der Waals (Tail)/kʙ     -1.100506e+02 [K]
    Ewald Fourier/kʙ             2.389618e+03 [K]
    Ewald self/kʙ               -7.346713e+05 [K]
    Ewald exclusion/kʙ           7.323191e+05 [K]
    intra VDW/kʙ                 0.000000e+00 [K]
    intra Coulombic/kʙ           0.000000e+00 [K]
    polarization/kʙ              0.000000e+00 [K]
    dU/dlambda VDW/kʙ            0.000000e+00 [K]
    dU/dlambda Real/kʙ           0.000000e+00 [K]
    dU/dlambda Ewald/kʙ          0.000000e+00 [K]





Initialization: Current cycle: 0 out of 2000
===============================================================================

Box:      30.00000   0.00000   0.00000
           0.00000  30.00000   0.00000
           0.00000   0.00000  30.00000
Lengths:  30.00000  30.00000  30.00000
Angles:   90.00000  90.00000  90.00000
Rectangular boundary conditions

net charge:   0.00000000

component   0 (CO2) lambda:  0 occupancy:  1 (1.000000)
    net charge:   0.00000000 [e]

Amount of molecules per component :
-------------------------------------------------------------------------------
Component 0 (CO2)
    molecules:         3.900000e+01 molecules
    number density:    1.444444e-03 molec/A^3
    density:           1.055336e+02 kg/m^3

Total potential energy/kʙ       -5.724057e+03 [K]
-------------------------------------------------------------------------------
    external field VDW/kʙ        0.000000e+00 [K]
    external field Real/kʙ       0.000000e+00 [K]
    framework-molecule VDW/kʙ    0.000000e+00 [K]
    framework-molecule Real/kʙ   0.000000e+00 [K]
    molecule-molecule VDW/kʙ    -4.445451e+03 [K]
    molecule-molecule Real/kʙ   -9.389668e+02 [K]
    Van der Waals (Tail)/kʙ     -1.046169e+02 [K]
    Ewald Fourier/kʙ             2.058398e+03 [K]
    Ewald self/kʙ               -7.163045e+05 [K]
    Ewald exclusion/kʙ           7.140111e+05 [K]
    intra VDW/kʙ                 0.000000e+00 [K]
    intra Coulombic/kʙ           0.000000e+00 [K]
    polarization/kʙ              0.000000e+00 [K]
    dU/dlambda VDW/kʙ            0.000000e+00 [K]
    dU/dlambda Real/kʙ           0.000000e+00 [K]
    dU/dlambda Ewald/kʙ          0.000000e+00 [K]


Initialization: Current cycle: 100 out of 2000
===============================================================================

Box:      29.75033   0.00000   0.00000
           0.00000  29.75033   0.00000
           0.00000   0.00000  29.75033
Lengths:  29.75033  29.75033  29.75033
Angles:   90.00000  90.00000  90.00000
Rectangular boundary conditions

net charge:   0.00000000

component   0 (CO2) lambda:  0 occupancy:  1 (1.000000)
    net charge:   0.00000000 [e]

Amount of molecules per component :
-------------------------------------------------------------------------------
Component 0 (CO2)
    molecules:         3.500000e+01 molecules
    number density:    1.329208e-03 molec/A^3
    density:           9.711420e+01 kg/m^3

Total potential energy/kʙ       -5.553548e+03 [K]
-------------------------------------------------------------------------------
    external field VDW/kʙ        0.000000e+00 [K]
    external field Real/kʙ       0.000000e+00 [K]
    framework-molecule VDW/kʙ    0.000000e+00 [K]
    framework-molecule Real/kʙ   0.000000e+00 [K]
    molecule-molecule VDW/kʙ    -4.980000e+03 [K]
    molecule-molecule Real/kʙ   -4.486374e+02 [K]
    Van der Waals (Tail)/kʙ     -8.639670e+01 [K]
    Ewald Fourier/kʙ             2.019683e+03 [K]
    Ewald self/kʙ               -6.428374e+05 [K]
    Ewald exclusion/kʙ           6.407792e+05 [K]
    intra VDW/kʙ                 0.000000e+00 [K]
    intra Coulombic/kʙ           0.000000e+00 [K]
    polarization/kʙ              0.000000e+00 [K]
    dU/dlambda VDW/kʙ            0.000000e+00 [K]
    dU/dlambda Real/kʙ           0.000000e+00 [K]
    dU/dlambda Ewald/kʙ          0.000000e+00 [K]


Initialization: Current cycle: 200 out of 2000
===============================================================================

Box:      29.32363   0.00000   0.00000
           0.00000  29.32363   0.00000
           0.00000   0.00000  29.32363
Lengths:  29.32363  29.32363  29.32363
Angles:   90.00000  90.00000  90.00000
Rectangular boundary conditions

net charge:   0.00000000

component   0 (CO2) lambda:  0 occupancy:  1 (1.000000)
    net charge:   0.00000000 [e]

Amount of molecules per component :
-------------------------------------------------------------------------------
Component 0 (CO2)
    molecules:         2.800000e+01 molecules
    number density:    1.110465e-03 molec/A^3
    density:           8.113248e+01 kg/m^3

Total potential energy/kʙ       -3.867738e+03 [K]
-------------------------------------------------------------------------------
    external field VDW/kʙ        0.000000e+00 [K]
    external field Real/kʙ       0.000000e+00 [K]
    framework-molecule VDW/kʙ    0.000000e+00 [K]
    framework-molecule Real/kʙ   0.000000e+00 [K]
    molecule-molecule VDW/kʙ    -2.864731e+03 [K]
    molecule-molecule Real/kʙ   -9.732431e+02 [K]
    Van der Waals (Tail)/kʙ     -5.774298e+01 [K]
    Ewald Fourier/kʙ             1.674536e+03 [K]
    Ewald self/kʙ               -5.142699e+05 [K]
    Ewald exclusion/kʙ           5.126233e+05 [K]
    intra VDW/kʙ                 0.000000e+00 [K]
    intra Coulombic/kʙ           0.000000e+00 [K]
    polarization/kʙ              0.000000e+00 [K]
    dU/dlambda VDW/kʙ            0.000000e+00 [K]
    dU/dlambda Real/kʙ           0.000000e+00 [K]
    dU/dlambda Ewald/kʙ          0.000000e+00 [K]


Initialization: Current cycle: 300 out of 2000
===============================================================================

Box:      30.16885   0.00000   0.00000
           0.00000  30.16885   0.00000
           0.00000   0.00000  30.16885
Lengths:  30.16885  30.16885  30.16885
Angles:   90.00000  90.00000  90.00000
Rectangular boundary conditions

net charge:   0.00000000

component   0 (CO2) lambda:  0 occupancy:  1 (1.000000)
    net charge:   0.00000000 [e]

Amount of molecules per component :
-------------------------------------------------------------------------------
Component 0 (CO2)
    molecules:         3.000000e+01 molecules
    number density:    1.092559e-03 molec/A^3
    density:           7.982426e+01 kg/m^3

Total potential energy/kʙ       -4.404562e+03 [K]
-------------------------------------------------------------------------------
    external field VDW/kʙ        0.000000e+00 [K]
    external field Real/kʙ       0.000000e+00 [K]
    framework-molecule VDW/kʙ    0.000000e+00 [K]
    framework-molecule Real/kʙ   0.000000e+00 [K]
    molecule-molecule VDW/kʙ    -3.103558e+03 [K]
    molecule-molecule Real/kʙ   -1.029390e+03 [K]
    Van der Waals (Tail)/kʙ     -6.086989e+01 [K]
    Ewald Fourier/kʙ             1.553424e+03 [K]
    Ewald self/kʙ               -5.510035e+05 [K]
    Ewald exclusion/kʙ           5.492393e+05 [K]
    intra VDW/kʙ                 0.000000e+00 [K]
    intra Coulombic/kʙ           0.000000e+00 [K]
    polarization/kʙ              0.000000e+00 [K]
    dU/dlambda VDW/kʙ            0.000000e+00 [K]
    dU/dlambda Real/kʙ           0.000000e+00 [K]
    dU/dlambda Ewald/kʙ          0.000000e+00 [K]


Initialization: Current cycle: 400 out of 2000
===============================================================================

Box:      30.40589   0.00000   0.00000
           0.00000  30.40589   0.00000
           0.00000   0.00000  30.40589
Lengths:  30.40589  30.40589  30.40589
Angles:   90.00000  90.00000  90.00000
Rectangular boundary conditions

net charge:   0.00000000

component   0 (CO2) lambda:  0 occupancy:  1 (1.000000)
    net charge:   0.00000000 [e]

Amount of molecules per component :
-------------------------------------------------------------------------------
Component 0 (CO2)
    molecules:         2.200000e+01 molecules
    number density:    7.826172e-04 molec/A^3
    density:           5.717935e+01 kg/m^3

Total potential energy/kʙ       -2.396426e+03 [K]
-------------------------------------------------------------------------------
    external field VDW/kʙ        0.000000e+00 [K]
    external field Real/kʙ       0.000000e+00 [K]
    framework-molecule VDW/kʙ    0.000000e+00 [K]
    framework-molecule Real/kʙ   0.000000e+00 [K]
    molecule-molecule VDW/kʙ    -2.076539e+03 [K]
    molecule-molecule Real/kʙ   -2.677472e+02 [K]
    Van der Waals (Tail)/kʙ     -3.197483e+01 [K]
    Ewald Fourier/kʙ             1.273559e+03 [K]
    Ewald self/kʙ               -4.040692e+05 [K]
    Ewald exclusion/kʙ           4.027755e+05 [K]
    intra VDW/kʙ                 0.000000e+00 [K]
    intra Coulombic/kʙ           0.000000e+00 [K]
    polarization/kʙ              0.000000e+00 [K]
    dU/dlambda VDW/kʙ            0.000000e+00 [K]
    dU/dlambda Real/kʙ           0.000000e+00 [K]
    dU/dlambda Ewald/kʙ          0.000000e+00 [K]


Initialization: Current cycle: 500 out of 2000
===============================================================================

Box:      31.47227   0.00000   0.00000
           0.00000  31.47227   0.00000
           0.00000   0.00000  31.47227
Lengths:  31.47227  31.47227  31.47227
Angles:   90.00000  90.00000  90.00000
Rectangular boundary conditions

net charge:   0.00000000

component   0 (CO2) lambda:  0 occupancy:  1 (1.000000)
    net charge:   0.00000000 [e]

Amount of molecules per component :
-------------------------------------------------------------------------------
Component 0 (CO2)
    molecules:         3.200000e+01 molecules
    number density:    1.026516e-03 molec/A^3
    density:           7.499899e+01 kg/m^3

Total potential energy/kʙ       -4.210007e+03 [K]
-------------------------------------------------------------------------------
    external field VDW/kʙ        0.000000e+00 [K]
    external field Real/kʙ       0.000000e+00 [K]
    framework-molecule VDW/kʙ    0.000000e+00 [K]
    framework-molecule Real/kʙ   0.000000e+00 [K]
    molecule-molecule VDW/kʙ    -2.541377e+03 [K]
    molecule-molecule Real/kʙ   -1.433405e+03 [K]
    Van der Waals (Tail)/kʙ     -6.100308e+01 [K]
    Ewald Fourier/kʙ             1.707558e+03 [K]
    Ewald self/kʙ               -5.877370e+05 [K]
    Ewald exclusion/kʙ           5.858552e+05 [K]
    intra VDW/kʙ                 0.000000e+00 [K]
    intra Coulombic/kʙ           0.000000e+00 [K]
    polarization/kʙ              0.000000e+00 [K]
    dU/dlambda VDW/kʙ            0.000000e+00 [K]
    dU/dlambda Real/kʙ           0.000000e+00 [K]
    dU/dlambda Ewald/kʙ          0.000000e+00 [K]


Initialization: Current cycle: 600 out of 2000
===============================================================================

Box:      32.44083   0.00000   0.00000
           0.00000  32.44083   0.00000
           0.00000   0.00000  32.44083
Lengths:  32.44083  32.44083  32.44083
Angles:   90.00000  90.00000  90.00000
Rectangular boundary conditions

net charge:   0.00000000

component   0 (CO2) lambda:  0 occupancy:  1 (1.000000)
    net charge:   0.00000000 [e]

Amount of molecules per component :
-------------------------------------------------------------------------------
Component 0 (CO2)
    molecules:         5.700000e+01 molecules
    number density:    1.669549e-03 molec/A^3
    density:           1.219801e+02 kg/m^3

Total potential energy/kʙ       -1.087561e+04 [K]
-------------------------------------------------------------------------------
    external field VDW/kʙ        0.000000e+00 [K]
    external field Real/kʙ       0.000000e+00 [K]
    framework-molecule VDW/kʙ    0.000000e+00 [K]
    framework-molecule Real/kʙ   0.000000e+00 [K]
    molecule-molecule VDW/kʙ    -8.257544e+03 [K]
    molecule-molecule Real/kʙ   -2.302870e+03 [K]
    Van der Waals (Tail)/kʙ     -1.767300e+02 [K]
    Ewald Fourier/kʙ             3.213459e+03 [K]
    Ewald self/kʙ               -1.046907e+06 [K]
    Ewald exclusion/kʙ           1.043555e+06 [K]
    intra VDW/kʙ                 0.000000e+00 [K]
    intra Coulombic/kʙ           0.000000e+00 [K]
    polarization/kʙ              0.000000e+00 [K]
    dU/dlambda VDW/kʙ            0.000000e+00 [K]
    dU/dlambda Real/kʙ           0.000000e+00 [K]
    dU/dlambda Ewald/kʙ          0.000000e+00 [K]


Initialization: Current cycle: 700 out of 2000
===============================================================================

Box:      33.24871   0.00000   0.00000
           0.00000  33.24871   0.00000
           0.00000   0.00000  33.24871
Lengths:  33.24871  33.24871  33.24871
Angles:   90.00000  90.00000  90.00000
Rectangular boundary conditions

net charge:   0.00000000

component   0 (CO2) lambda:  0 occupancy:  1 (1.000000)
    net charge:   0.00000000 [e]

Amount of molecules per component :
-------------------------------------------------------------------------------
Component 0 (CO2)
    molecules:         5.400000e+01 molecules
    number density:    1.469161e-03 molec/A^3
    density:           1.073394e+02 kg/m^3

Total potential energy/kʙ       -1.319717e+04 [K]
-------------------------------------------------------------------------------
    external field VDW/kʙ        0.000000e+00 [K]
    external field Real/kʙ       0.000000e+00 [K]
    framework-molecule VDW/kʙ    0.000000e+00 [K]
    framework-molecule Real/kʙ   0.000000e+00 [K]
    molecule-molecule VDW/kʙ    -1.008005e+04 [K]
    molecule-molecule Real/kʙ   -2.816877e+03 [K]
    Van der Waals (Tail)/kʙ     -1.473328e+02 [K]
    Ewald Fourier/kʙ             3.022593e+03 [K]
    Ewald self/kʙ               -9.918062e+05 [K]
    Ewald exclusion/kʙ           9.886307e+05 [K]
    intra VDW/kʙ                 0.000000e+00 [K]
    intra Coulombic/kʙ           0.000000e+00 [K]
    polarization/kʙ              0.000000e+00 [K]
    dU/dlambda VDW/kʙ            0.000000e+00 [K]
    dU/dlambda Real/kʙ           0.000000e+00 [K]
    dU/dlambda Ewald/kʙ          0.000000e+00 [K]


Initialization: Current cycle: 800 out of 2000
===============================================================================

Box:      33.14618   0.00000   0.00000
           0.00000  33.14618   0.00000
           0.00000   0.00000  33.14618
Lengths:  33.14618  33.14618  33.14618
Angles:   90.00000  90.00000  90.00000
Rectangular boundary conditions

net charge:   0.00000000

component   0 (CO2) lambda:  0 occupancy:  1 (1.000000)
    net charge:   0.00000000 [e]

Amount of molecules per component :
-------------------------------------------------------------------------------
Component 0 (CO2)
    molecules:         4.800000e+01 molecules
    number density:    1.318077e-03 molec/A^3
    density:           9.630097e+01 kg/m^3

Total potential energy/kʙ       -8.357031e+03 [K]
-------------------------------------------------------------------------------
    external field VDW/kʙ        0.000000e+00 [K]
    external field Real/kʙ       0.000000e+00 [K]
    framework-molecule VDW/kʙ    0.000000e+00 [K]
    framework-molecule Real/kʙ   0.000000e+00 [K]
    molecule-molecule VDW/kʙ    -6.263356e+03 [K]
    molecule-molecule Real/kʙ   -1.896554e+03 [K]
    Van der Waals (Tail)/kʙ     -1.174947e+02 [K]
    Ewald Fourier/kʙ             2.743045e+03 [K]
    Ewald self/kʙ               -8.816055e+05 [K]
    Ewald exclusion/kʙ           8.787829e+05 [K]
    intra VDW/kʙ                 0.000000e+00 [K]
    intra Coulombic/kʙ           0.000000e+00 [K]
    polarization/kʙ              0.000000e+00 [K]
    dU/dlambda VDW/kʙ            0.000000e+00 [K]
    dU/dlambda Real/kʙ           0.000000e+00 [K]
    dU/dlambda Ewald/kʙ          0.000000e+00 [K]


Initialization: Current cycle: 900 out of 2000
===============================================================================

Box:      33.04199   0.00000   0.00000
           0.00000  33.04199   0.00000
           0.00000   0.00000  33.04199
Lengths:  33.04199  33.04199  33.04199
Angles:   90.00000  90.00000  90.00000
Rectangular boundary conditions

net charge:   0.00000000

component   0 (CO2) lambda:  0 occupancy:  1 (1.000000)
    net charge:   0.00000000 [e]

Amount of molecules per component :
-------------------------------------------------------------------------------
Component 0 (CO2)
    molecules:         3.100000e+01 molecules
    number density:    8.593365e-04 molec/A^3
    density:           6.278460e+01 kg/m^3

Total potential energy/kʙ       -3.638490e+03 [K]
-------------------------------------------------------------------------------
    external field VDW/kʙ        0.000000e+00 [K]
    external field Real/kʙ       0.000000e+00 [K]
    framework-molecule VDW/kʙ    0.000000e+00 [K]
    framework-molecule Real/kʙ   0.000000e+00 [K]
    molecule-molecule VDW/kʙ    -2.891107e+03 [K]
    molecule-molecule Real/kʙ   -6.500086e+02 [K]
    Van der Waals (Tail)/kʙ     -4.947219e+01 [K]
    Ewald Fourier/kʙ             1.775073e+03 [K]
    Ewald self/kʙ               -5.693702e+05 [K]
    Ewald exclusion/kʙ           5.675473e+05 [K]
    intra VDW/kʙ                 0.000000e+00 [K]
    intra Coulombic/kʙ           0.000000e+00 [K]
    polarization/kʙ              0.000000e+00 [K]
    dU/dlambda VDW/kʙ            0.000000e+00 [K]
    dU/dlambda Real/kʙ           0.000000e+00 [K]
    dU/dlambda Ewald/kʙ          0.000000e+00 [K]


Initialization: Current cycle: 1000 out of 2000
===============================================================================

Box:      33.08167   0.00000   0.00000
           0.00000  33.08167   0.00000
           0.00000   0.00000  33.08167
Lengths:  33.08167  33.08167  33.08167
Angles:   90.00000  90.00000  90.00000
Rectangular boundary conditions

net charge:   0.00000000

component   0 (CO2) lambda:  0 occupancy:  1 (1.000000)
    net charge:   0.00000000 [e]

Amount of molecules per component :
-------------------------------------------------------------------------------
Component 0 (CO2)
    molecules:         3.600000e+01 molecules
    number density:    9.943523e-04 molec/A^3
    density:           7.264908e+01 kg/m^3

Total potential energy/kʙ       -3.340713e+03 [K]
-------------------------------------------------------------------------------
    external field VDW/kʙ        0.000000e+00 [K]
    external field Real/kʙ       0.000000e+00 [K]
    framework-molecule VDW/kʙ    0.000000e+00 [K]
    framework-molecule Real/kʙ   0.000000e+00 [K]
    molecule-molecule VDW/kʙ    -3.659629e+03 [K]
    molecule-molecule Real/kʙ    2.382780e+02 [K]
    Van der Waals (Tail)/kʙ     -6.647816e+01 [K]
    Ewald Fourier/kʙ             2.264119e+03 [K]
    Ewald self/kʙ               -6.612042e+05 [K]
    Ewald exclusion/kʙ           6.590872e+05 [K]
    intra VDW/kʙ                 0.000000e+00 [K]
    intra Coulombic/kʙ           0.000000e+00 [K]
    polarization/kʙ              0.000000e+00 [K]
    dU/dlambda VDW/kʙ            0.000000e+00 [K]
    dU/dlambda Real/kʙ           0.000000e+00 [K]
    dU/dlambda Ewald/kʙ          0.000000e+00 [K]


Initialization: Current cycle: 1100 out of 2000
===============================================================================

Box:      33.40130   0.00000   0.00000
           0.00000  33.40130   0.00000
           0.00000   0.00000  33.40130
Lengths:  33.40130  33.40130  33.40130
Angles:   90.00000  90.00000  90.00000
Rectangular boundary conditions

net charge:   0.00000000

component   0 (CO2) lambda:  0 occupancy:  1 (1.000000)
    net charge:   0.00000000 [e]

Amount of molecules per component :
-------------------------------------------------------------------------------
Component 0 (CO2)
    molecules:         4.300000e+01 molecules
    number density:    1.153927e-03 molec/A^3
    density:           8.430790e+01 kg/m^3

Total potential energy/kʙ       -6.253249e+03 [K]
-------------------------------------------------------------------------------
    external field VDW/kʙ        0.000000e+00 [K]
    external field Real/kʙ       0.000000e+00 [K]
    framework-molecule VDW/kʙ    0.000000e+00 [K]
    framework-molecule Real/kʙ   0.000000e+00 [K]
    molecule-molecule VDW/kʙ    -4.420752e+03 [K]
    molecule-molecule Real/kʙ   -1.588284e+03 [K]
    Van der Waals (Tail)/kʙ     -9.214741e+01 [K]
    Ewald Fourier/kʙ             2.376578e+03 [K]
    Ewald self/kʙ               -7.897716e+05 [K]
    Ewald exclusion/kʙ           7.872430e+05 [K]
    intra VDW/kʙ                 0.000000e+00 [K]
    intra Coulombic/kʙ           0.000000e+00 [K]
    polarization/kʙ              0.000000e+00 [K]
    dU/dlambda VDW/kʙ            0.000000e+00 [K]
    dU/dlambda Real/kʙ           0.000000e+00 [K]
    dU/dlambda Ewald/kʙ          0.000000e+00 [K]


Initialization: Current cycle: 1200 out of 2000
===============================================================================

Box:      33.23741   0.00000   0.00000
           0.00000  33.23741   0.00000
           0.00000   0.00000  33.23741
Lengths:  33.23741  33.23741  33.23741
Angles:   90.00000  90.00000  90.00000
Rectangular boundary conditions

net charge:   0.00000000

component   0 (CO2) lambda:  0 occupancy:  1 (1.000000)
    net charge:   0.00000000 [e]

Amount of molecules per component :
-------------------------------------------------------------------------------
Component 0 (CO2)
    molecules:         4.500000e+01 molecules
    number density:    1.225550e-03 molec/A^3
    density:           8.954076e+01 kg/m^3

Total potential energy/kʙ       -6.509907e+03 [K]
-------------------------------------------------------------------------------
    external field VDW/kʙ        0.000000e+00 [K]
    external field Real/kʙ       0.000000e+00 [K]
    framework-molecule VDW/kʙ    0.000000e+00 [K]
    framework-molecule Real/kʙ   0.000000e+00 [K]
    molecule-molecule VDW/kʙ    -4.352009e+03 [K]
    molecule-molecule Real/kʙ   -1.786648e+03 [K]
    Van der Waals (Tail)/kʙ     -1.024188e+02 [K]
    Ewald Fourier/kʙ             2.377422e+03 [K]
    Ewald self/kʙ               -8.265052e+05 [K]
    Ewald exclusion/kʙ           8.238589e+05 [K]
    intra VDW/kʙ                 0.000000e+00 [K]
    intra Coulombic/kʙ           0.000000e+00 [K]
    polarization/kʙ              0.000000e+00 [K]
    dU/dlambda VDW/kʙ            0.000000e+00 [K]
    dU/dlambda Real/kʙ           0.000000e+00 [K]
    dU/dlambda Ewald/kʙ          0.000000e+00 [K]


Initialization: Current cycle: 1300 out of 2000
===============================================================================

Box:      33.20948   0.00000   0.00000
           0.00000  33.20948   0.00000
           0.00000   0.00000  33.20948
Lengths:  33.20948  33.20948  33.20948
Angles:   90.00000  90.00000  90.00000
Rectangular boundary conditions

net charge:   0.00000000

component   0 (CO2) lambda:  0 occupancy:  1 (1.000000)
    net charge:   0.00000000 [e]

Amount of molecules per component :
-------------------------------------------------------------------------------
Component 0 (CO2)
    molecules:         5.400000e+01 molecules
    number density:    1.474374e-03 molec/A^3
    density:           1.077203e+02 kg/m^3

Total potential energy/kʙ       -8.476615e+03 [K]
-------------------------------------------------------------------------------
    external field VDW/kʙ        0.000000e+00 [K]
    external field Real/kʙ       0.000000e+00 [K]
    framework-molecule VDW/kʙ    0.000000e+00 [K]
    framework-molecule Real/kʙ   0.000000e+00 [K]
    molecule-molecule VDW/kʙ    -6.655237e+03 [K]
    molecule-molecule Real/kʙ   -1.456975e+03 [K]
    Van der Waals (Tail)/kʙ     -1.478556e+02 [K]
    Ewald Fourier/kʙ             2.958957e+03 [K]
    Ewald self/kʙ               -9.918062e+05 [K]
    Ewald exclusion/kʙ           9.886307e+05 [K]
    intra VDW/kʙ                 0.000000e+00 [K]
    intra Coulombic/kʙ           0.000000e+00 [K]
    polarization/kʙ              0.000000e+00 [K]
    dU/dlambda VDW/kʙ            0.000000e+00 [K]
    dU/dlambda Real/kʙ           0.000000e+00 [K]
    dU/dlambda Ewald/kʙ          0.000000e+00 [K]


Initialization: Current cycle: 1400 out of 2000
===============================================================================

Box:      33.00765   0.00000   0.00000
           0.00000  33.00765   0.00000
           0.00000   0.00000  33.00765
Lengths:  33.00765  33.00765  33.00765
Angles:   90.00000  90.00000  90.00000
Rectangular boundary conditions

net charge:   0.00000000

component   0 (CO2) lambda:  0 occupancy:  1 (1.000000)
    net charge:   0.00000000 [e]

Amount of molecules per component :
-------------------------------------------------------------------------------
Component 0 (CO2)
    molecules:         4.100000e+01 molecules
    number density:    1.140092e-03 molec/A^3
    density:           8.329710e+01 kg/m^3

Total potential energy/kʙ       -5.449999e+03 [K]
-------------------------------------------------------------------------------
    external field VDW/kʙ        0.000000e+00 [K]
    external field Real/kʙ       0.000000e+00 [K]
    framework-molecule VDW/kʙ    0.000000e+00 [K]
    framework-molecule Real/kʙ   0.000000e+00 [K]
    molecule-molecule VDW/kʙ    -4.836018e+03 [K]
    molecule-molecule Real/kʙ   -4.187371e+02 [K]
    Van der Waals (Tail)/kʙ     -8.680807e+01 [K]
    Ewald Fourier/kʙ             2.302595e+03 [K]
    Ewald self/kʙ               -7.530381e+05 [K]
    Ewald exclusion/kʙ           7.506270e+05 [K]
    intra VDW/kʙ                 0.000000e+00 [K]
    intra Coulombic/kʙ           0.000000e+00 [K]
    polarization/kʙ              0.000000e+00 [K]
    dU/dlambda VDW/kʙ            0.000000e+00 [K]
    dU/dlambda Real/kʙ           0.000000e+00 [K]
    dU/dlambda Ewald/kʙ          0.000000e+00 [K]


Initialization: Current cycle: 1500 out of 2000
===============================================================================

Box:      33.38907   0.00000   0.00000
           0.00000  33.38907   0.00000
           0.00000   0.00000  33.38907
Lengths:  33.38907  33.38907  33.38907
Angles:   90.00000  90.00000  90.00000
Rectangular boundary conditions

net charge:   0.00000000

component   0 (CO2) lambda:  0 occupancy:  1 (1.000000)
    net charge:   0.00000000 [e]

Amount of molecules per component :
-------------------------------------------------------------------------------
Component 0 (CO2)
    molecules:         4.400000e+01 molecules
    number density:    1.182060e-03 molec/A^3
    density:           8.636335e+01 kg/m^3

Total potential energy/kʙ       -6.369536e+03 [K]
-------------------------------------------------------------------------------
    external field VDW/kʙ        0.000000e+00 [K]
    external field Real/kʙ       0.000000e+00 [K]
    framework-molecule VDW/kʙ    0.000000e+00 [K]
    framework-molecule Real/kʙ   0.000000e+00 [K]
    molecule-molecule VDW/kʙ    -4.006645e+03 [K]
    molecule-molecule Real/kʙ   -2.133817e+03 [K]
    Van der Waals (Tail)/kʙ     -9.658919e+01 [K]
    Ewald Fourier/kʙ             2.454963e+03 [K]
    Ewald self/kʙ               -8.081384e+05 [K]
    Ewald exclusion/kʙ           8.055510e+05 [K]
    intra VDW/kʙ                 0.000000e+00 [K]
    intra Coulombic/kʙ           0.000000e+00 [K]
    polarization/kʙ              0.000000e+00 [K]
    dU/dlambda VDW/kʙ            0.000000e+00 [K]
    dU/dlambda Real/kʙ           0.000000e+00 [K]
    dU/dlambda Ewald/kʙ          0.000000e+00 [K]


Initialization: Current cycle: 1600 out of 2000
===============================================================================

Box:      33.51053   0.00000   0.00000
           0.00000  33.51053   0.00000
           0.00000   0.00000  33.51053
Lengths:  33.51053  33.51053  33.51053
Angles:   90.00000  90.00000  90.00000
Rectangular boundary conditions

net charge:   0.00000000

component   0 (CO2) lambda:  0 occupancy:  1 (1.000000)
    net charge:   0.00000000 [e]

Amount of molecules per component :
-------------------------------------------------------------------------------
Component 0 (CO2)
    molecules:         4.300000e+01 molecules
    number density:    1.142680e-03 molec/A^3
    density:           8.348618e+01 kg/m^3

Total potential energy/kʙ       -6.350500e+03 [K]
-------------------------------------------------------------------------------
    external field VDW/kʙ        0.000000e+00 [K]
    external field Real/kʙ       0.000000e+00 [K]
    framework-molecule VDW/kʙ    0.000000e+00 [K]
    framework-molecule Real/kʙ   0.000000e+00 [K]
    molecule-molecule VDW/kʙ    -5.248324e+03 [K]
    molecule-molecule Real/kʙ   -7.944813e+02 [K]
    Van der Waals (Tail)/kʙ     -9.124927e+01 [K]
    Ewald Fourier/kʙ             2.312197e+03 [K]
    Ewald self/kʙ               -7.897716e+05 [K]
    Ewald exclusion/kʙ           7.872430e+05 [K]
    intra VDW/kʙ                 0.000000e+00 [K]
    intra Coulombic/kʙ           0.000000e+00 [K]
    polarization/kʙ              0.000000e+00 [K]
    dU/dlambda VDW/kʙ            0.000000e+00 [K]
    dU/dlambda Real/kʙ           0.000000e+00 [K]
    dU/dlambda Ewald/kʙ          0.000000e+00 [K]


Initialization: Current cycle: 1700 out of 2000
===============================================================================

Box:      33.44665   0.00000   0.00000
           0.00000  33.44665   0.00000
           0.00000   0.00000  33.44665
Lengths:  33.44665  33.44665  33.44665
Angles:   90.00000  90.00000  90.00000
Rectangular boundary conditions

net charge:   0.00000000

component   0 (CO2) lambda:  0 occupancy:  1 (1.000000)
    net charge:   0.00000000 [e]

Amount of molecules per component :
-------------------------------------------------------------------------------
Component 0 (CO2)
    molecules:         4.300000e+01 molecules
    number density:    1.149239e-03 molec/A^3
    density:           8.396537e+01 kg/m^3

Total potential energy/kʙ       -4.969612e+03 [K]
-------------------------------------------------------------------------------
    external field VDW/kʙ        0.000000e+00 [K]
    external field Real/kʙ       0.000000e+00 [K]
    framework-molecule VDW/kʙ    0.000000e+00 [K]
    framework-molecule Real/kʙ   0.000000e+00 [K]
    molecule-molecule VDW/kʙ    -3.549845e+03 [K]
    molecule-molecule Real/kʙ   -1.260848e+03 [K]
    Van der Waals (Tail)/kʙ     -9.177303e+01 [K]
    Ewald Fourier/kʙ             2.461496e+03 [K]
    Ewald self/kʙ               -7.897716e+05 [K]
    Ewald exclusion/kʙ           7.872430e+05 [K]
    intra VDW/kʙ                 0.000000e+00 [K]
    intra Coulombic/kʙ           0.000000e+00 [K]
    polarization/kʙ              0.000000e+00 [K]
    dU/dlambda VDW/kʙ            0.000000e+00 [K]
    dU/dlambda Real/kʙ           0.000000e+00 [K]
    dU/dlambda Ewald/kʙ          0.000000e+00 [K]


Initialization: Current cycle: 1800 out of 2000
===============================================================================

Box:      33.23157   0.00000   0.00000
           0.00000  33.23157   0.00000
           0.00000   0.00000  33.23157
Lengths:  33.23157  33.23157  33.23157
Angles:   90.00000  90.00000  90.00000
Rectangular boundary conditions

net charge:   0.00000000

component   0 (CO2) lambda:  0 occupancy:  1 (1.000000)
    net charge:   0.00000000 [e]

Amount of molecules per component :
-------------------------------------------------------------------------------
Component 0 (CO2)
    molecules:         3.800000e+01 molecules
    number density:    1.035455e-03 molec/A^3
    density:           7.565209e+01 kg/m^3

Total potential energy/kʙ       -4.036208e+03 [K]
-------------------------------------------------------------------------------
    external field VDW/kʙ        0.000000e+00 [K]
    external field Real/kʙ       0.000000e+00 [K]
    framework-molecule VDW/kʙ    0.000000e+00 [K]
    framework-molecule Real/kʙ   0.000000e+00 [K]
    molecule-molecule VDW/kʙ    -2.345491e+03 [K]
    molecule-molecule Real/kʙ   -1.412756e+03 [K]
    Van der Waals (Tail)/kʙ     -7.307198e+01 [K]
    Ewald Fourier/kʙ             2.029725e+03 [K]
    Ewald self/kʙ               -6.979377e+05 [K]
    Ewald exclusion/kʙ           6.957031e+05 [K]
    intra VDW/kʙ                 0.000000e+00 [K]
    intra Coulombic/kʙ           0.000000e+00 [K]
    polarization/kʙ              0.000000e+00 [K]
    dU/dlambda VDW/kʙ            0.000000e+00 [K]
    dU/dlambda Real/kʙ           0.000000e+00 [K]
    dU/dlambda Ewald/kʙ          0.000000e+00 [K]


Initialization: Current cycle: 1900 out of 2000
===============================================================================

Box:      33.27876   0.00000   0.00000
           0.00000  33.27876   0.00000
           0.00000   0.00000  33.27876
Lengths:  33.27876  33.27876  33.27876
Angles:   90.00000  90.00000  90.00000
Rectangular boundary conditions

net charge:   0.00000000

component   0 (CO2) lambda:  0 occupancy:  1 (1.000000)
    net charge:   0.00000000 [e]

Amount of molecules per component :
-------------------------------------------------------------------------------
Component 0 (CO2)
    molecules:         4.300000e+01 molecules
    number density:    1.166721e-03 molec/A^3
    density:           8.524260e+01 kg/m^3

Total potential energy/kʙ       -8.182862e+03 [K]
-------------------------------------------------------------------------------
    external field VDW/kʙ        0.000000e+00 [K]
    external field Real/kʙ       0.000000e+00 [K]
    framework-molecule VDW/kʙ    0.000000e+00 [K]
    framework-molecule Real/kʙ   0.000000e+00 [K]
    molecule-molecule VDW/kʙ    -5.272698e+03 [K]
    molecule-molecule Real/kʙ   -2.548973e+03 [K]
    Van der Waals (Tail)/kʙ     -9.316902e+01 [K]
    Ewald Fourier/kʙ             2.260620e+03 [K]
    Ewald self/kʙ               -7.897716e+05 [K]
    Ewald exclusion/kʙ           7.872430e+05 [K]
    intra VDW/kʙ                 0.000000e+00 [K]
    intra Coulombic/kʙ           0.000000e+00 [K]
    polarization/kʙ              0.000000e+00 [K]
    dU/dlambda VDW/kʙ            0.000000e+00 [K]
    dU/dlambda Real/kʙ           0.000000e+00 [K]
    dU/dlambda Ewald/kʙ          0.000000e+00 [K]


Current cycle: 0 out of 6000
===============================================================================

Box:      33.65322   0.00000   0.00000  Average:  33.65322   0.00000   0.00000
           0.00000  33.65322   0.00000             0.00000  33.65322   0.00000
           0.00000   0.00000  33.65322             0.00000   0.00000  33.65322
Lengths:  33.65322  33.65322  33.65322  Average:  33.65322  33.65322  33.65322
Angles:   90.00000  90.00000  90.00000  Average:  90.00000  90.00000  90.00000
Rectangular boundary conditions

net charge:   0.00000000

component 0 (CO2) lambda:  0 occupancy:  1 (1.000000)
    net charge:   0.00000000 [e]

Amount of molecules per component :
-------------------------------------------------------------------------------
Component 0 (CO2)
    molecules:      5.300000e+01 molecules  (5.300000e+01 +/- 0.000000e+00)
    number density: 1.390580e-03 molec./A^3 (1.390580e-03 +/- 0.000000e+00)
    density:        1.015982e+02 kg/m^3     (1.015982e+02 +/- 0.000000e+00)

Average pressure tensor: 
-------------------------------------------------------------------------------
 5.3757e+01  0.0000e+00  0.0000e+00 +/- 0.0000e+00 0.0000e+00 0.0000e+00 [bar]
 0.0000e+00  5.3757e+01  0.0000e+00 +/- 0.0000e+00 0.0000e+00 0.0000e+00 [bar]
 0.0000e+00  0.0000e+00  5.3757e+01 +/- 0.0000e+00 0.0000e+00 0.0000e+00 [bar]
Ideal-gas pressure:   5.375733e+01 +/ 0.000000e+00 [bar]
Excess pressure:      0.000000e+00 +/ 0.000000e+00 [bar]
Pressure:             5.375733e+01 +/ 0.000000e+00 [bar]

Total potential energy/kʙ  -1.463479e+04 (-1.463479e+04 +/- 0.000000e+00) [K]
-------------------------------------------------------------------------------
ExternalField-molecule
    Van der Waals/kʙ        0.000000e+00 ( 0.000000e+00 +/- 0.000000e+00) [K]
Framework-molecule
    Van der Waals/kʙ        0.000000e+00 ( 0.000000e+00 +/- 0.000000e+00) [K]
    Van der Waals (Tail)/kʙ 0.000000e+00 ( 0.000000e+00 +/- 0.000000e+00) [K]
    Coulombic Real/kʙ       0.000000e+00 ( 0.000000e+00 +/- 0.000000e+00) [K]
    Coulombic Fourier/kʙ    0.000000e+00 ( 0.000000e+00 +/- 0.000000e+00) [K]
Molecule-molecule
    Van der Waals/kʙ       -1.048163e+04 (-1.048163e+04 +/- 0.000000e+00) [K]
    Van der Waals (Tail)/kʙ-1.368699e+02 (-1.368699e+02 +/- 0.000000e+00) [K]
    Coulombic Real/kʙ      -3.642242e+03 (-3.642242e+03 +/- 0.000000e+00) [K]
    Coulombic Fourier/kʙ   -3.740551e+02 (-3.740551e+02 +/- 0.000000e+00) [K]
    Molecule Intra/kʙ       0.000000e+00 ( 0.000000e+00 +/- 0.000000e+00) [K]

Current cycle: 100 out of 6000
===============================================================================

Box:      33.47820   0.00000   0.00000  Average:  33.58850   0.00000   0.00000
           0.00000  33.47820   0.00000             0.00000  33.58850   0.00000
           0.00000   0.00000  33.47820             0.00000   0.00000  33.58850
Lengths:  33.47820  33.47820  33.47820  Average:  33.58850  33.58850  33.58850
Angles:   90.00000  90.00000  90.00000  Average:  90.00000  90.00000  90.00000
Rectangular boundary conditions

net charge:   0.00000000

component 0 (CO2) lambda:  0 occupancy:  1 (1.000000)
    net charge:   0.00000000 [e]

Amount of molecules per component :
-------------------------------------------------------------------------------
Component 0 (CO2)
    molecules:      3.800000e+01 molecules  (4.713861e+01 +/- 0.000000e+00)
    number density: 1.012739e-03 molec./A^3 (1.243324e-03 +/- 0.000000e+00)
    density:        7.399243e+01 kg/m^3     (9.083935e+01 +/- 0.000000e+00)

Average pressure tensor: 
-------------------------------------------------------------------------------
 2.8498e+01  6.6788e-01 -4.6671e+00 +/- 0.0000e+00 0.0000e+00 0.0000e+00 [bar]
 6.6788e-01  4.3353e+01  2.7199e+00 +/- 0.0000e+00 0.0000e+00 0.0000e+00 [bar]
-4.6671e+00  2.7199e+00  4.3220e+01 +/- 0.0000e+00 0.0000e+00 0.0000e+00 [bar]
Ideal-gas pressure:   4.806467e+01 +/ 0.000000e+00 [bar]
Excess pressure:     -9.707685e+00 +/ 0.000000e+00 [bar]
Pressure:             3.835698e+01 +/ 0.000000e+00 [bar]

Total potential energy/kʙ  -5.072055e+03 (-7.277375e+03 +/- 0.000000e+00) [K]
-------------------------------------------------------------------------------
ExternalField-molecule
    Van der Waals/kʙ        0.000000e+00 ( 0.000000e+00 +/- 0.000000e+00) [K]
Framework-molecule
    Van der Waals/kʙ        0.000000e+00 ( 0.000000e+00 +/- 0.000000e+00) [K]
    Van der Waals (Tail)/kʙ 0.000000e+00 ( 0.000000e+00 +/- 0.000000e+00) [K]
    Coulombic Real/kʙ       0.000000e+00 ( 0.000000e+00 +/- 0.000000e+00) [K]
    Coulombic Fourier/kʙ    0.000000e+00 ( 0.000000e+00 +/- 0.000000e+00) [K]
Molecule-molecule
    Van der Waals/kʙ       -4.490649e+03 (-5.653586e+03 +/- 0.000000e+00) [K]
    Van der Waals (Tail)/kʙ-7.146892e+01 (-1.093354e+02 +/- 0.000000e+00) [K]
    Coulombic Real/kʙ      -4.471583e+02 (-1.367880e+03 +/- 0.000000e+00) [K]
    Coulombic Fourier/kʙ   -6.277905e+01 (-1.465741e+02 +/- 0.000000e+00) [K]
    Molecule Intra/kʙ       0.000000e+00 ( 0.000000e+00 +/- 0.000000e+00) [K]

Current cycle: 200 out of 6000
===============================================================================

Box:      33.34700   0.00000   0.00000  Average:  33.43125   0.00000   0.00000
           0.00000  33.34700   0.00000             0.00000  33.43125   0.00000
           0.00000   0.00000  33.34700             0.00000   0.00000  33.43125
Lengths:  33.34700  33.34700  33.34700  Average:  33.43125  33.43125  33.43125
Angles:   90.00000  90.00000  90.00000  Average:  90.00000  90.00000  90.00000
Rectangular boundary conditions

net charge:   0.00000000

component 0 (CO2) lambda:  0 occupancy:  1 (1.000000)
    net charge:   0.00000000 [e]

Amount of molecules per component :
-------------------------------------------------------------------------------
Component 0 (CO2)
    molecules:      3.100000e+01 molecules  (4.501990e+01 +/- 0.000000e+00)
    number density: 8.359713e-04 molec./A^3 (1.204361e-03 +/- 0.000000e+00)
    density:        6.107750e+01 kg/m^3     (8.799271e+01 +/- 0.000000e+00)

Average pressure tensor: 
-------------------------------------------------------------------------------
 3.3199e+01 -1.9637e+00 -2.4157e+00 +/- 0.0000e+00 0.0000e+00 0.0000e+00 [bar]
-1.9637e+00  3.5346e+01  1.6819e+00 +/- 0.0000e+00 0.0000e+00 0.0000e+00 [bar]
-2.4157e+00  1.6819e+00  3.6401e+01 +/- 0.0000e+00 0.0000e+00 0.0000e+00 [bar]
Ideal-gas pressure:   4.655846e+01 +/ 0.000000e+00 [bar]
Excess pressure:     -1.157656e+01 +/ 0.000000e+00 [bar]
Pressure:             3.498189e+01 +/ 0.000000e+00 [bar]

Total potential energy/kʙ  -2.829285e+03 (-7.316476e+03 +/- 0.000000e+00) [K]
-------------------------------------------------------------------------------
ExternalField-molecule
    Van der Waals/kʙ        0.000000e+00 ( 0.000000e+00 +/- 0.000000e+00) [K]
Framework-molecule
    Van der Waals/kʙ        0.000000e+00 ( 0.000000e+00 +/- 0.000000e+00) [K]
    Van der Waals (Tail)/kʙ 0.000000e+00 ( 0.000000e+00 +/- 0.000000e+00) [K]
    Coulombic Real/kʙ       0.000000e+00 ( 0.000000e+00 +/- 0.000000e+00) [K]
    Coulombic Fourier/kʙ    0.000000e+00 ( 0.000000e+00 +/- 0.000000e+00) [K]
Molecule-molecule
    Van der Waals/kʙ       -2.637847e+03 (-5.518562e+03 +/- 0.000000e+00) [K]
    Van der Waals (Tail)/kʙ-4.812706e+01 (-1.041466e+02 +/- 0.000000e+00) [K]
    Coulombic Real/kʙ      -7.637124e+01 (-1.540535e+03 +/- 0.000000e+00) [K]
    Coulombic Fourier/kʙ   -6.693954e+01 (-1.532321e+02 +/- 0.000000e+00) [K]
    Molecule Intra/kʙ       0.000000e+00 ( 0.000000e+00 +/- 0.000000e+00) [K]

Current cycle: 300 out of 6000
===============================================================================

Box:      33.32887   0.00000   0.00000  Average:  33.37704   0.00000   0.00000
           0.00000  33.32887   0.00000             0.00000  33.37704   0.00000
           0.00000   0.00000  33.32887             0.00000   0.00000  33.37704
Lengths:  33.32887  33.32887  33.32887  Average:  33.37704  33.37704  33.37704
Angles:   90.00000  90.00000  90.00000  Average:  90.00000  90.00000  90.00000
Rectangular boundary conditions

net charge:   0.00000000

component 0 (CO2) lambda:  0 occupancy:  1 (1.000000)
    net charge:   0.00000000 [e]

Amount of molecules per component :
-------------------------------------------------------------------------------
Component 0 (CO2)
    molecules:      4.200000e+01 molecules  (4.380399e+01 +/- 0.000000e+00)
    number density: 1.134456e-03 molec./A^3 (1.177314e-03 +/- 0.000000e+00)
    density:        8.288530e+01 kg/m^3     (8.601657e+01 +/- 0.000000e+00)

Average pressure tensor: 
-------------------------------------------------------------------------------
 3.8671e+01 -1.6217e+00  3.3423e-02 +/- 0.0000e+00 0.0000e+00 0.0000e+00 [bar]
-1.6217e+00  3.5701e+01 -2.1390e-01 +/- 0.0000e+00 0.0000e+00 0.0000e+00 [bar]
 3.3423e-02 -2.1390e-01  4.0883e+01 +/- 0.0000e+00 0.0000e+00 0.0000e+00 [bar]
Ideal-gas pressure:   4.551285e+01 +/ 0.000000e+00 [bar]
Excess pressure:     -7.094502e+00 +/ 0.000000e+00 [bar]
Pressure:             3.841834e+01 +/ 0.000000e+00 [bar]

Total potential energy/kʙ  -7.974886e+03 (-6.957744e+03 +/- 0.000000e+00) [K]
-------------------------------------------------------------------------------
ExternalField-molecule
    Van der Waals/kʙ        0.000000e+00 ( 0.000000e+00 +/- 0.000000e+00) [K]
Framework-molecule
    Van der Waals/kʙ        0.000000e+00 ( 0.000000e+00 +/- 0.000000e+00) [K]
    Van der Waals (Tail)/kʙ 0.000000e+00 ( 0.000000e+00 +/- 0.000000e+00) [K]
    Coulombic Real/kʙ       0.000000e+00 ( 0.000000e+00 +/- 0.000000e+00) [K]
    Coulombic Fourier/kʙ    0.000000e+00 ( 0.000000e+00 +/- 0.000000e+00) [K]
Molecule-molecule
    Van der Waals/kʙ       -5.263371e+03 (-5.095721e+03 +/- 0.000000e+00) [K]
    Van der Waals (Tail)/kʙ-8.848572e+01 (-9.875930e+01 +/- 0.000000e+00) [K]
    Coulombic Real/kʙ      -2.509463e+03 (-1.618615e+03 +/- 0.000000e+00) [K]
    Coulombic Fourier/kʙ   -1.135659e+02 (-1.446473e+02 +/- 0.000000e+00) [K]
    Molecule Intra/kʙ       0.000000e+00 ( 0.000000e+00 +/- 0.000000e+00) [K]

Current cycle: 400 out of 6000
===============================================================================

Box:      33.62850   0.00000   0.00000  Average:  33.38008   0.00000   0.00000
           0.00000  33.62850   0.00000             0.00000  33.38008   0.00000
           0.00000   0.00000  33.62850             0.00000   0.00000  33.38008
Lengths:  33.62850  33.62850  33.62850  Average:  33.38008  33.38008  33.38008
Angles:   90.00000  90.00000  90.00000  Average:  90.00000  90.00000  90.00000
Rectangular boundary conditions

net charge:   0.00000000

component 0 (CO2) lambda:  0 occupancy:  1 (1.000000)
    net charge:   0.00000000 [e]

Amount of molecules per component :
-------------------------------------------------------------------------------
Component 0 (CO2)
    molecules:      5.700000e+01 molecules  (4.529676e+01 +/- 0.000000e+00)
    number density: 1.498830e-03 molec./A^3 (1.216503e-03 +/- 0.000000e+00)
    density:        1.095071e+02 kg/m^3     (8.887980e+01 +/- 0.000000e+00)

Average pressure tensor: 
-------------------------------------------------------------------------------
 3.8299e+01 -4.4700e-01 -2.9950e-01 +/- 0.0000e+00 0.0000e+00 0.0000e+00 [bar]
-4.4700e-01  3.6511e+01 -1.9516e+00 +/- 0.0000e+00 0.0000e+00 0.0000e+00 [bar]
-2.9950e-01 -1.9516e+00  4.1215e+01 +/- 0.0000e+00 0.0000e+00 0.0000e+00 [bar]
Ideal-gas pressure:   4.702783e+01 +/ 0.000000e+00 [bar]
Excess pressure:     -8.352739e+00 +/ 0.000000e+00 [bar]
Pressure:             3.867510e+01 +/ 0.000000e+00 [bar]

Total potential energy/kʙ  -9.773828e+03 (-7.454233e+03 +/- 0.000000e+00) [K]
-------------------------------------------------------------------------------
ExternalField-molecule
    Van der Waals/kʙ        0.000000e+00 ( 0.000000e+00 +/- 0.000000e+00) [K]
Framework-molecule
    Van der Waals/kʙ        0.000000e+00 ( 0.000000e+00 +/- 0.000000e+00) [K]
    Van der Waals (Tail)/kʙ 0.000000e+00 ( 0.000000e+00 +/- 0.000000e+00) [K]
    Coulombic Real/kʙ       0.000000e+00 ( 0.000000e+00 +/- 0.000000e+00) [K]
    Coulombic Fourier/kʙ    0.000000e+00 ( 0.000000e+00 +/- 0.000000e+00) [K]
Molecule-molecule
    Van der Waals/kʙ       -6.903573e+03 (-5.425664e+03 +/- 0.000000e+00) [K]
    Van der Waals (Tail)/kʙ-1.586585e+02 (-1.064223e+02 +/- 0.000000e+00) [K]
    Coulombic Real/kʙ      -2.405785e+03 (-1.766795e+03 +/- 0.000000e+00) [K]
    Coulombic Fourier/kʙ   -3.058124e+02 (-1.553517e+02 +/- 0.000000e+00) [K]
    Molecule Intra/kʙ       0.000000e+00 ( 0.000000e+00 +/- 0.000000e+00) [K]

Current cycle: 500 out of 6000
===============================================================================

Box:      33.65560   0.00000   0.00000  Average:  33.43766   0.00000   0.00000
           0.00000  33.65560   0.00000             0.00000  33.43766   0.00000
           0.00000   0.00000  33.65560             0.00000   0.00000  33.43766
Lengths:  33.65560  33.65560  33.65560  Average:  33.43766  33.43766  33.43766
Angles:   90.00000  90.00000  90.00000  Average:  90.00000  90.00000  90.00000
Rectangular boundary conditions

net charge:   0.00000000

component 0 (CO2) lambda:  0 occupancy:  1 (1.000000)
    net charge:   0.00000000 [e]

Amount of molecules per component :
-------------------------------------------------------------------------------
Component 0 (CO2)
    molecules:      5.000000e+01 molecules  (4.790020e+01 +/- 0.000000e+00)
    number density: 1.311590e-03 molec./A^3 (1.278749e-03 +/- 0.000000e+00)
    density:        9.582698e+01 kg/m^3     (9.342756e+01 +/- 0.000000e+00)

Average pressure tensor: 
-------------------------------------------------------------------------------
 4.0499e+01 -1.8279e+00  9.7603e-01 +/- 0.0000e+00 0.0000e+00 0.0000e+00 [bar]
-1.8279e+00  3.8376e+01 -2.0978e+00 +/- 0.0000e+00 0.0000e+00 0.0000e+00 [bar]
 9.7603e-01 -2.0978e+00  4.4714e+01 +/- 0.0000e+00 0.0000e+00 0.0000e+00 [bar]
Ideal-gas pressure:   4.943413e+01 +/ 0.000000e+00 [bar]
Excess pressure:     -8.237827e+00 +/ 0.000000e+00 [bar]
Pressure:             4.119631e+01 +/ 0.000000e+00 [bar]

Total potential energy/kʙ  -1.055140e+04 (-8.198175e+03 +/- 0.000000e+00) [K]
-------------------------------------------------------------------------------
ExternalField-molecule
    Van der Waals/kʙ        0.000000e+00 ( 0.000000e+00 +/- 0.000000e+00) [K]
Framework-molecule
    Van der Waals/kʙ        0.000000e+00 ( 0.000000e+00 +/- 0.000000e+00) [K]
    Van der Waals (Tail)/kʙ 0.000000e+00 ( 0.000000e+00 +/- 0.000000e+00) [K]
    Coulombic Real/kʙ       0.000000e+00 ( 0.000000e+00 +/- 0.000000e+00) [K]
    Coulombic Fourier/kʙ    0.000000e+00 ( 0.000000e+00 +/- 0.000000e+00) [K]
Molecule-molecule
    Van der Waals/kʙ       -7.916030e+03 (-5.976704e+03 +/- 0.000000e+00) [K]
    Van der Waals (Tail)/kʙ-1.217879e+02 (-1.160902e+02 +/- 0.000000e+00) [K]
    Coulombic Real/kʙ      -2.453758e+03 (-1.937720e+03 +/- 0.000000e+00) [K]
    Coulombic Fourier/kʙ   -5.982695e+01 (-1.676607e+02 +/- 0.000000e+00) [K]
    Molecule Intra/kʙ       0.000000e+00 ( 0.000000e+00 +/- 0.000000e+00) [K]

Current cycle: 600 out of 6000
===============================================================================

Box:      33.60752   0.00000   0.00000  Average:  33.49006   0.00000   0.00000
           0.00000  33.60752   0.00000             0.00000  33.49006   0.00000
           0.00000   0.00000  33.60752             0.00000   0.00000  33.49006
Lengths:  33.60752  33.60752  33.60752  Average:  33.49006  33.49006  33.49006
Angles:   90.00000  90.00000  90.00000  Average:  90.00000  90.00000  90.00000
Rectangular boundary conditions

net charge:   0.00000000

component 0 (CO2) lambda:  0 occupancy:  1 (1.000000)
    net charge:   0.00000000 [e]

Amount of molecules per component :
-------------------------------------------------------------------------------
Component 0 (CO2)
    molecules:      5.600000e+01 molecules  (4.826789e+01 +/- 0.000000e+00)
    number density: 1.475294e-03 molec./A^3 (1.282797e-03 +/- 0.000000e+00)
    density:        1.077875e+02 kg/m^3     (9.372337e+01 +/- 0.000000e+00)

Average pressure tensor: 
-------------------------------------------------------------------------------
 4.0394e+01 -1.4163e+00 -4.0104e-01 +/- 0.0000e+00 0.0000e+00 0.0000e+00 [bar]
-1.4163e+00  3.7512e+01 -1.8346e+00 +/- 0.0000e+00 0.0000e+00 0.0000e+00 [bar]
-4.0104e-01 -1.8346e+00  4.2861e+01 +/- 0.0000e+00 0.0000e+00 0.0000e+00 [bar]
Ideal-gas pressure:   4.959065e+01 +/ 0.000000e+00 [bar]
Excess pressure:     -9.334955e+00 +/ 0.000000e+00 [bar]
Pressure:             4.025569e+01 +/ 0.000000e+00 [bar]

Total potential energy/kʙ  -9.001018e+03 (-8.381575e+03 +/- 0.000000e+00) [K]
-------------------------------------------------------------------------------
ExternalField-molecule
    Van der Waals/kʙ        0.000000e+00 ( 0.000000e+00 +/- 0.000000e+00) [K]
Framework-molecule
    Van der Waals/kʙ        0.000000e+00 ( 0.000000e+00 +/- 0.000000e+00) [K]
    Van der Waals (Tail)/kʙ 0.000000e+00 ( 0.000000e+00 +/- 0.000000e+00) [K]
    Coulombic Real/kʙ       0.000000e+00 ( 0.000000e+00 +/- 0.000000e+00) [K]
    Coulombic Fourier/kʙ    0.000000e+00 ( 0.000000e+00 +/- 0.000000e+00) [K]
Molecule-molecule
    Van der Waals/kʙ       -7.399604e+03 (-6.145894e+03 +/- 0.000000e+00) [K]
    Van der Waals (Tail)/kʙ-1.534274e+02 (-1.174169e+02 +/- 0.000000e+00) [K]
    Coulombic Real/kʙ      -1.356760e+03 (-1.948979e+03 +/- 0.000000e+00) [K]
    Coulombic Fourier/kʙ   -9.122726e+01 (-1.692855e+02 +/- 0.000000e+00) [K]
    Molecule Intra/kʙ       0.000000e+00 ( 0.000000e+00 +/- 0.000000e+00) [K]

Current cycle: 700 out of 6000
===============================================================================

Box:      33.32639   0.00000   0.00000  Average:  33.46891   0.00000   0.00000
           0.00000  33.32639   0.00000             0.00000  33.46891   0.00000
           0.00000   0.00000  33.32639             0.00000   0.00000  33.46891
Lengths:  33.32639  33.32639  33.32639  Average:  33.46891  33.46891  33.46891
Angles:   90.00000  90.00000  90.00000  Average:  90.00000  90.00000  90.00000
Rectangular boundary conditions

net charge:   0.00000000

component 0 (CO2) lambda:  0 occupancy:  1 (1.000000)
    net charge:   0.00000000 [e]

Amount of molecules per component :
-------------------------------------------------------------------------------
Component 0 (CO2)
    molecules:      5.700000e+01 molecules  (4.850357e+01 +/- 0.000000e+00)
    number density: 1.539962e-03 molec./A^3 (1.291827e-03 +/- 0.000000e+00)
    density:        1.125123e+02 kg/m^3     (9.438313e+01 +/- 0.000000e+00)

Average pressure tensor: 
-------------------------------------------------------------------------------
 4.1625e+01 -1.2920e+00 -1.4856e+00 +/- 0.0000e+00 0.0000e+00 0.0000e+00 [bar]
-1.2920e+00  3.7810e+01 -1.6149e+00 +/- 0.0000e+00 0.0000e+00 0.0000e+00 [bar]
-1.4856e+00 -1.6149e+00  4.2908e+01 +/- 0.0000e+00 0.0000e+00 0.0000e+00 [bar]
Ideal-gas pressure:   4.993974e+01 +/ 0.000000e+00 [bar]
Excess pressure:     -9.158535e+00 +/ 0.000000e+00 [bar]
Pressure:             4.078120e+01 +/ 0.000000e+00 [bar]

Total potential energy/kʙ  -8.716001e+03 (-8.430151e+03 +/- 0.000000e+00) [K]
-------------------------------------------------------------------------------
ExternalField-molecule
    Van der Waals/kʙ        0.000000e+00 ( 0.000000e+00 +/- 0.000000e+00) [K]
Framework-molecule
    Van der Waals/kʙ        0.000000e+00 ( 0.000000e+00 +/- 0.000000e+00) [K]
    Van der Waals (Tail)/kʙ 0.000000e+00 ( 0.000000e+00 +/- 0.000000e+00) [K]
    Coulombic Real/kʙ       0.000000e+00 ( 0.000000e+00 +/- 0.000000e+00) [K]
    Coulombic Fourier/kʙ    0.000000e+00 ( 0.000000e+00 +/- 0.000000e+00) [K]
Molecule-molecule
    Van der Waals/kʙ       -7.955649e+03 (-6.212119e+03 +/- 0.000000e+00) [K]
    Van der Waals (Tail)/kʙ-1.630126e+02 (-1.189137e+02 +/- 0.000000e+00) [K]
    Coulombic Real/kʙ      -6.704470e+02 (-1.935852e+03 +/- 0.000000e+00) [K]
    Coulombic Fourier/kʙ    7.310824e+01 (-1.632657e+02 +/- 0.000000e+00) [K]
    Molecule Intra/kʙ       0.000000e+00 ( 0.000000e+00 +/- 0.000000e+00) [K]

Current cycle: 800 out of 6000
===============================================================================

Box:      33.36691   0.00000   0.00000  Average:  33.45685   0.00000   0.00000
           0.00000  33.36691   0.00000             0.00000  33.45685   0.00000
           0.00000   0.00000  33.36691             0.00000   0.00000  33.45685
Lengths:  33.36691  33.36691  33.36691  Average:  33.45685  33.45685  33.45685
Angles:   90.00000  90.00000  90.00000  Average:  90.00000  90.00000  90.00000
Rectangular boundary conditions

net charge:   0.00000000

component 0 (CO2) lambda:  0 occupancy:  1 (1.000000)
    net charge:   0.00000000 [e]

Amount of molecules per component :
-------------------------------------------------------------------------------
Component 0 (CO2)
    molecules:      5.900000e+01 molecules  (4.950811e+01 +/- 0.000000e+00)
    number density: 1.588195e-03 molec./A^3 (1.320391e-03 +/- 0.000000e+00)
    density:        1.160363e+02 kg/m^3     (9.647006e+01 +/- 0.000000e+00)

Average pressure tensor: 
-------------------------------------------------------------------------------
 4.1544e+01 -1.9190e+00 -1.1793e+00 +/- 0.0000e+00 0.0000e+00 0.0000e+00 [bar]
-1.9190e+00  3.7645e+01 -1.9409e+00 +/- 0.0000e+00 0.0000e+00 0.0000e+00 [bar]
-1.1793e+00 -1.9409e+00  4.3878e+01 +/- 0.0000e+00 0.0000e+00 0.0000e+00 [bar]
Ideal-gas pressure:   5.104397e+01 +/ 0.000000e+00 [bar]
Excess pressure:     -1.002149e+01 +/ 0.000000e+00 [bar]
Pressure:             4.102248e+01 +/ 0.000000e+00 [bar]

Total potential energy/kʙ  -1.264997e+04 (-9.020438e+03 +/- 0.000000e+00) [K]
-------------------------------------------------------------------------------
ExternalField-molecule
    Van der Waals/kʙ        0.000000e+00 ( 0.000000e+00 +/- 0.000000e+00) [K]
Framework-molecule
    Van der Waals/kʙ        0.000000e+00 ( 0.000000e+00 +/- 0.000000e+00) [K]
    Van der Waals (Tail)/kʙ 0.000000e+00 ( 0.000000e+00 +/- 0.000000e+00) [K]
    Coulombic Real/kʙ       0.000000e+00 ( 0.000000e+00 +/- 0.000000e+00) [K]
    Coulombic Fourier/kʙ    0.000000e+00 ( 0.000000e+00 +/- 0.000000e+00) [K]
Molecule-molecule
    Van der Waals/kʙ       -9.446888e+03 (-6.660145e+03 +/- 0.000000e+00) [K]
    Van der Waals (Tail)/kʙ-1.740172e+02 (-1.258010e+02 +/- 0.000000e+00) [K]
    Coulombic Real/kʙ      -2.817013e+03 (-2.059287e+03 +/- 0.000000e+00) [K]
    Coulombic Fourier/kʙ   -2.120482e+02 (-1.752054e+02 +/- 0.000000e+00) [K]
    Molecule Intra/kʙ       0.000000e+00 ( 0.000000e+00 +/- 0.000000e+00) [K]

Current cycle: 900 out of 6000
===============================================================================

Box:      32.67117   0.00000   0.00000  Average:  33.37149   0.00000   0.00000
           0.00000  32.67117   0.00000             0.00000  33.37149   0.00000
           0.00000   0.00000  32.67117             0.00000   0.00000  33.37149
Lengths:  32.67117  32.67117  32.67117  Average:  33.37149  33.37149  33.37149
Angles:   90.00000  90.00000  90.00000  Average:  90.00000  90.00000  90.00000
Rectangular boundary conditions

net charge:   0.00000000

component 0 (CO2) lambda:  0 occupancy:  1 (1.000000)
    net charge:   0.00000000 [e]

Amount of molecules per component :
-------------------------------------------------------------------------------
Component 0 (CO2)
    molecules:      3.200000e+01 molecules  (4.778468e+01 +/- 0.000000e+00)
    number density: 9.176054e-04 molec./A^3 (1.281642e-03 +/- 0.000000e+00)
    density:        6.704182e+01 kg/m^3     (9.363899e+01 +/- 0.000000e+00)

Average pressure tensor: 
-------------------------------------------------------------------------------
 3.9827e+01 -2.1987e+00 -4.4200e-01 +/- 0.0000e+00 0.0000e+00 0.0000e+00 [bar]
-2.1987e+00  3.6941e+01 -1.4253e+00 +/- 0.0000e+00 0.0000e+00 0.0000e+00 [bar]
-4.4200e-01 -1.4253e+00  4.2682e+01 +/- 0.0000e+00 0.0000e+00 0.0000e+00 [bar]
Ideal-gas pressure:   4.954600e+01 +/ 0.000000e+00 [bar]
Excess pressure:     -9.729191e+00 +/ 0.000000e+00 [bar]
Pressure:             3.981681e+01 +/ 0.000000e+00 [bar]

Total potential energy/kʙ  -2.264172e+03 (-8.448155e+03 +/- 0.000000e+00) [K]
-------------------------------------------------------------------------------
ExternalField-molecule
    Van der Waals/kʙ        0.000000e+00 ( 0.000000e+00 +/- 0.000000e+00) [K]
Framework-molecule
    Van der Waals/kʙ        0.000000e+00 ( 0.000000e+00 +/- 0.000000e+00) [K]
    Van der Waals (Tail)/kʙ 0.000000e+00 ( 0.000000e+00 +/- 0.000000e+00) [K]
    Coulombic Real/kʙ       0.000000e+00 ( 0.000000e+00 +/- 0.000000e+00) [K]
    Coulombic Fourier/kʙ    0.000000e+00 ( 0.000000e+00 +/- 0.000000e+00) [K]
Molecule-molecule
    Van der Waals/kʙ       -1.038876e+03 (-6.235810e+03 +/- 0.000000e+00) [K]
    Van der Waals (Tail)/kʙ-5.453083e+01 (-1.186907e+02 +/- 0.000000e+00) [K]
    Coulombic Real/kʙ      -9.813190e+02 (-1.924800e+03 +/- 0.000000e+00) [K]
    Coulombic Fourier/kʙ   -1.894461e+02 (-1.688542e+02 +/- 0.000000e+00) [K]
    Molecule Intra/kʙ       0.000000e+00 ( 0.000000e+00 +/- 0.000000e+00) [K]

Current cycle: 1000 out of 6000
===============================================================================

Box:      32.79676   0.00000   0.00000  Average:  33.31651   0.00000   0.00000
           0.00000  32.79676   0.00000             0.00000  33.31651   0.00000
           0.00000   0.00000  32.79676             0.00000   0.00000  33.31651
Lengths:  32.79676  32.79676  32.79676  Average:  33.31651  33.31651  33.31651
Angles:   90.00000  90.00000  90.00000  Average:  90.00000  90.00000  90.00000
Rectangular boundary conditions

net charge:   0.00000000

component 0 (CO2) lambda:  0 occupancy:  1 (1.000000)
    net charge:   0.00000000 [e]

Amount of molecules per component :
-------------------------------------------------------------------------------
Component 0 (CO2)
    molecules:      4.100000e+01 molecules  (4.661738e+01 +/- 0.000000e+00)
    number density: 1.162227e-03 molec./A^3 (1.255580e-03 +/- 0.000000e+00)
    density:        8.491432e+01 kg/m^3     (9.173485e+01 +/- 0.000000e+00)

Average pressure tensor: 
-------------------------------------------------------------------------------
 4.0218e+01 -1.9108e+00 -2.1258e-01 +/- 0.0000e+00 0.0000e+00 0.0000e+00 [bar]
-1.9108e+00  3.5900e+01 -1.2046e+00 +/- 0.0000e+00 0.0000e+00 0.0000e+00 [bar]
-2.1258e-01 -1.2046e+00  4.1473e+01 +/- 0.0000e+00 0.0000e+00 0.0000e+00 [bar]
Ideal-gas pressure:   4.853849e+01 +/ 0.000000e+00 [bar]
Excess pressure:     -9.341779e+00 +/ 0.000000e+00 [bar]
Pressure:             3.919671e+01 +/ 0.000000e+00 [bar]

Total potential energy/kʙ  -4.988746e+03 (-8.111299e+03 +/- 0.000000e+00) [K]
-------------------------------------------------------------------------------
ExternalField-molecule
    Van der Waals/kʙ        0.000000e+00 ( 0.000000e+00 +/- 0.000000e+00) [K]
Framework-molecule
    Van der Waals/kʙ        0.000000e+00 ( 0.000000e+00 +/- 0.000000e+00) [K]
    Van der Waals (Tail)/kʙ 0.000000e+00 ( 0.000000e+00 +/- 0.000000e+00) [K]
    Coulombic Real/kʙ       0.000000e+00 ( 0.000000e+00 +/- 0.000000e+00) [K]
    Coulombic Fourier/kʙ    0.000000e+00 ( 0.000000e+00 +/- 0.000000e+00) [K]
Molecule-molecule
    Van der Waals/kʙ       -3.950879e+03 (-5.987212e+03 +/- 0.000000e+00) [K]
    Van der Waals (Tail)/kʙ-8.849346e+01 (-1.139607e+02 +/- 0.000000e+00) [K]
    Coulombic Real/kʙ      -7.789545e+02 (-1.843202e+03 +/- 0.000000e+00) [K]
    Coulombic Fourier/kʙ   -1.704193e+02 (-1.669237e+02 +/- 0.000000e+00) [K]
    Molecule Intra/kʙ       0.000000e+00 ( 0.000000e+00 +/- 0.000000e+00) [K]

Current cycle: 1100 out of 6000
===============================================================================

Box:      32.71213   0.00000   0.00000  Average:  33.24254   0.00000   0.00000
           0.00000  32.71213   0.00000             0.00000  33.24254   0.00000
           0.00000   0.00000  32.71213             0.00000   0.00000  33.24254
Lengths:  32.71213  32.71213  32.71213  Average:  33.24254  33.24254  33.24254
Angles:   90.00000  90.00000  90.00000  Average:  90.00000  90.00000  90.00000
Rectangular boundary conditions

net charge:   0.00000000

component 0 (CO2) lambda:  0 occupancy:  1 (1.000000)
    net charge:   0.00000000 [e]

Amount of molecules per component :
-------------------------------------------------------------------------------
Component 0 (CO2)
    molecules:      4.400000e+01 molecules  (4.539055e+01 +/- 0.000000e+00)
    number density: 1.256974e-03 molec./A^3 (1.228984e-03 +/- 0.000000e+00)
    density:        9.183669e+01 kg/m^3     (8.979165e+01 +/- 0.000000e+00)

Average pressure tensor: 
-------------------------------------------------------------------------------
 3.9351e+01 -1.9502e+00 -4.0969e-01 +/- 0.0000e+00 0.0000e+00 0.0000e+00 [bar]
-1.9502e+00  3.5150e+01 -5.3476e-01 +/- 0.0000e+00 0.0000e+00 0.0000e+00 [bar]
-4.0969e-01 -5.3476e-01  4.0378e+01 +/- 0.0000e+00 0.0000e+00 0.0000e+00 [bar]
Ideal-gas pressure:   4.751031e+01 +/ 0.000000e+00 [bar]
Excess pressure:     -9.217064e+00 +/ 0.000000e+00 [bar]
Pressure:             3.829324e+01 +/ 0.000000e+00 [bar]

Total potential energy/kʙ  -6.330384e+03 (-7.840584e+03 +/- 0.000000e+00) [K]
-------------------------------------------------------------------------------
ExternalField-molecule
    Van der Waals/kʙ        0.000000e+00 ( 0.000000e+00 +/- 0.000000e+00) [K]
Framework-molecule
    Van der Waals/kʙ        0.000000e+00 ( 0.000000e+00 +/- 0.000000e+00) [K]
    Van der Waals (Tail)/kʙ 0.000000e+00 ( 0.000000e+00 +/- 0.000000e+00) [K]
    Coulombic Real/kʙ       0.000000e+00 ( 0.000000e+00 +/- 0.000000e+00) [K]
    Coulombic Fourier/kʙ    0.000000e+00 ( 0.000000e+00 +/- 0.000000e+00) [K]
Molecule-molecule
    Van der Waals/kʙ       -4.226177e+03 (-5.795864e+03 +/- 0.000000e+00) [K]
    Van der Waals (Tail)/kʙ-1.027106e+02 (-1.105067e+02 +/- 0.000000e+00) [K]
    Coulombic Real/kʙ      -1.826695e+03 (-1.773535e+03 +/- 0.000000e+00) [K]
    Coulombic Fourier/kʙ   -1.748016e+02 (-1.606782e+02 +/- 0.000000e+00) [K]
    Molecule Intra/kʙ       0.000000e+00 ( 0.000000e+00 +/- 0.000000e+00) [K]

Current cycle: 1200 out of 6000
===============================================================================

Box:      33.01017   0.00000   0.00000  Average:  33.20438   0.00000   0.00000
           0.00000  33.01017   0.00000             0.00000  33.20438   0.00000
           0.00000   0.00000  33.01017             0.00000   0.00000  33.20438
Lengths:  33.01017  33.01017  33.01017  Average:  33.20438  33.20438  33.20438
Angles:   90.00000  90.00000  90.00000  Average:  90.00000  90.00000  90.00000
Rectangular boundary conditions

net charge:   0.00000000

component 0 (CO2) lambda:  0 occupancy:  1 (1.000000)
    net charge:   0.00000000 [e]

Amount of molecules per component :
-------------------------------------------------------------------------------
Component 0 (CO2)
    molecules:      4.100000e+01 molecules  (4.480183e+01 +/- 0.000000e+00)
    number density: 1.139831e-03 molec./A^3 (1.217174e-03 +/- 0.000000e+00)
    density:        8.327800e+01 kg/m^3     (8.892879e+01 +/- 0.000000e+00)

Average pressure tensor: 
-------------------------------------------------------------------------------
 3.8572e+01 -1.6612e+00 -1.5288e-01 +/- 0.0000e+00 0.0000e+00 0.0000e+00 [bar]
-1.6612e+00  3.4906e+01 -1.8797e-01 +/- 0.0000e+00 0.0000e+00 0.0000e+00 [bar]
-1.5288e-01 -1.8797e-01  3.9832e+01 +/- 0.0000e+00 0.0000e+00 0.0000e+00 [bar]
Ideal-gas pressure:   4.705376e+01 +/ 0.000000e+00 [bar]
Excess pressure:     -9.283764e+00 +/ 0.000000e+00 [bar]
Pressure:             3.776999e+01 +/ 0.000000e+00 [bar]

Total potential energy/kʙ  -8.116750e+03 (-7.637823e+03 +/- 0.000000e+00) [K]
-------------------------------------------------------------------------------
ExternalField-molecule
    Van der Waals/kʙ        0.000000e+00 ( 0.000000e+00 +/- 0.000000e+00) [K]
Framework-molecule
    Van der Waals/kʙ        0.000000e+00 ( 0.000000e+00 +/- 0.000000e+00) [K]
    Van der Waals (Tail)/kʙ 0.000000e+00 ( 0.000000e+00 +/- 0.000000e+00) [K]
    Coulombic Real/kʙ       0.000000e+00 ( 0.000000e+00 +/- 0.000000e+00) [K]
    Coulombic Fourier/kʙ    0.000000e+00 ( 0.000000e+00 +/- 0.000000e+00) [K]
Molecule-molecule
    Van der Waals/kʙ       -5.309115e+03 (-5.639719e+03 +/- 0.000000e+00) [K]
    Van der Waals (Tail)/kʙ-8.678817e+01 (-1.072201e+02 +/- 0.000000e+00) [K]
    Coulombic Real/kʙ      -2.430194e+03 (-1.736075e+03 +/- 0.000000e+00) [K]
    Coulombic Fourier/kʙ   -2.906530e+02 (-1.548089e+02 +/- 0.000000e+00) [K]
    Molecule Intra/kʙ       0.000000e+00 ( 0.000000e+00 +/- 0.000000e+00) [K]

Current cycle: 1300 out of 6000
===============================================================================

Box:      33.19118   0.00000   0.00000  Average:  33.21520   0.00000   0.00000
           0.00000  33.19118   0.00000             0.00000  33.21520   0.00000
           0.00000   0.00000  33.19118             0.00000   0.00000  33.21520
Lengths:  33.19118  33.19118  33.19118  Average:  33.21520  33.21520  33.21520
Angles:   90.00000  90.00000  90.00000  Average:  90.00000  90.00000  90.00000
Rectangular boundary conditions

net charge:   0.00000000

component 0 (CO2) lambda:  0 occupancy:  1 (1.000000)
    net charge:   0.00000000 [e]

Amount of molecules per component :
-------------------------------------------------------------------------------
Component 0 (CO2)
    molecules:      5.200000e+01 molecules  (4.482936e+01 +/- 0.000000e+00)
    number density: 1.422117e-03 molec./A^3 (1.217203e-03 +/- 0.000000e+00)
    density:        1.039023e+02 kg/m^3     (8.893095e+01 +/- 0.000000e+00)

Average pressure tensor: 
-------------------------------------------------------------------------------
 3.8459e+01 -1.0148e+00 -1.3695e-01 +/- 0.0000e+00 0.0000e+00 0.0000e+00 [bar]
-1.0148e+00  3.5478e+01  1.9668e-01 +/- 0.0000e+00 0.0000e+00 0.0000e+00 [bar]
-1.3695e-01  1.9668e-01  4.0039e+01 +/- 0.0000e+00 0.0000e+00 0.0000e+00 [bar]
Ideal-gas pressure:   4.705490e+01 +/ 0.000000e+00 [bar]
Excess pressure:     -9.062742e+00 +/ 0.000000e+00 [bar]
Pressure:             3.799215e+01 +/ 0.000000e+00 [bar]

Total potential energy/kʙ  -1.038758e+04 (-7.561371e+03 +/- 0.000000e+00) [K]
-------------------------------------------------------------------------------
ExternalField-molecule
    Van der Waals/kʙ        0.000000e+00 ( 0.000000e+00 +/- 0.000000e+00) [K]
Framework-molecule
    Van der Waals/kʙ        0.000000e+00 ( 0.000000e+00 +/- 0.000000e+00) [K]
    Van der Waals (Tail)/kʙ 0.000000e+00 ( 0.000000e+00 +/- 0.000000e+00) [K]
    Coulombic Real/kʙ       0.000000e+00 ( 0.000000e+00 +/- 0.000000e+00) [K]
    Coulombic Fourier/kʙ    0.000000e+00 ( 0.000000e+00 +/- 0.000000e+00) [K]
Molecule-molecule
    Van der Waals/kʙ       -8.437832e+03 (-5.570464e+03 +/- 0.000000e+00) [K]
    Van der Waals (Tail)/kʙ-1.373330e+02 (-1.065052e+02 +/- 0.000000e+00) [K]
    Coulombic Real/kʙ      -1.740941e+03 (-1.728542e+03 +/- 0.000000e+00) [K]
    Coulombic Fourier/kʙ   -7.147284e+01 (-1.558599e+02 +/- 0.000000e+00) [K]
    Molecule Intra/kʙ       0.000000e+00 ( 0.000000e+00 +/- 0.000000e+00) [K]

Current cycle: 1400 out of 6000
===============================================================================

Box:      33.09446   0.00000   0.00000  Average:  33.21017   0.00000   0.00000
           0.00000  33.09446   0.00000             0.00000  33.21017   0.00000
           0.00000   0.00000  33.09446             0.00000   0.00000  33.21017
Lengths:  33.09446  33.09446  33.09446  Average:  33.21017  33.21017  33.21017
Angles:   90.00000  90.00000  90.00000  Average:  90.00000  90.00000  90.00000
Rectangular boundary conditions

net charge:   0.00000000

component 0 (CO2) lambda:  0 occupancy:  1 (1.000000)
    net charge:   0.00000000 [e]

Amount of molecules per component :
-------------------------------------------------------------------------------
Component 0 (CO2)
    molecules:      4.800000e+01 molecules  (4.473662e+01 +/- 0.000000e+00)
    number density: 1.324266e-03 molec./A^3 (1.215641e-03 +/- 0.000000e+00)
    density:        9.675317e+01 kg/m^3     (8.881681e+01 +/- 0.000000e+00)

Average pressure tensor: 
-------------------------------------------------------------------------------
 3.8487e+01 -5.1576e-01  4.4535e-02 +/- 0.0000e+00 0.0000e+00 0.0000e+00 [bar]
-5.1576e-01  3.5182e+01 -2.8180e-03 +/- 0.0000e+00 0.0000e+00 0.0000e+00 [bar]
 4.4535e-02 -2.8180e-03  4.0005e+01 +/- 0.0000e+00 0.0000e+00 0.0000e+00 [bar]
Ideal-gas pressure:   4.699450e+01 +/ 0.000000e+00 [bar]
Excess pressure:     -9.102950e+00 +/ 0.000000e+00 [bar]
Pressure:             3.789155e+01 +/ 0.000000e+00 [bar]

Total potential energy/kʙ  -8.440560e+03 (-7.444230e+03 +/- 0.000000e+00) [K]
-------------------------------------------------------------------------------
ExternalField-molecule
    Van der Waals/kʙ        0.000000e+00 ( 0.000000e+00 +/- 0.000000e+00) [K]
Framework-molecule
    Van der Waals/kʙ        0.000000e+00 ( 0.000000e+00 +/- 0.000000e+00) [K]
    Van der Waals (Tail)/kʙ 0.000000e+00 ( 0.000000e+00 +/- 0.000000e+00) [K]
    Coulombic Real/kʙ       0.000000e+00 ( 0.000000e+00 +/- 0.000000e+00) [K]
    Coulombic Fourier/kʙ    0.000000e+00 ( 0.000000e+00 +/- 0.000000e+00) [K]
Molecule-molecule
    Van der Waals/kʙ       -6.662853e+03 (-5.482932e+03 +/- 0.000000e+00) [K]
    Van der Waals (Tail)/kʙ-1.180464e+02 (-1.052851e+02 +/- 0.000000e+00) [K]
    Coulombic Real/kʙ      -1.652208e+03 (-1.699642e+03 +/- 0.000000e+00) [K]
    Coulombic Fourier/kʙ   -7.451448e+00 (-1.563706e+02 +/- 0.000000e+00) [K]
    Molecule Intra/kʙ       0.000000e+00 ( 0.000000e+00 +/- 0.000000e+00) [K]

Current cycle: 1500 out of 6000
===============================================================================

Box:      33.47756   0.00000   0.00000  Average:  33.20711   0.00000   0.00000
           0.00000  33.47756   0.00000             0.00000  33.20711   0.00000
           0.00000   0.00000  33.47756             0.00000   0.00000  33.20711
Lengths:  33.47756  33.47756  33.47756  Average:  33.20711  33.20711  33.20711
[...]
    number density: 2.150785e-03 molec./A^3 (1.398654e-03 +/- 2.550420e-04)
    density:        1.571400e+02 kg/m^3     (1.021880e+02 +/- 1.863381e+01)

Average pressure tensor: 
-------------------------------------------------------------------------------
 3.9484e+01 -1.2862e+00 -2.3106e-01 +/- 5.4487e+00 1.1437e+00 3.0414e+00 [bar]
-1.2862e+00  3.9679e+01 -6.5674e-01 +/- 1.1437e+00 6.3843e+00 1.8398e+00 [bar]
-2.3106e-01 -6.5674e-01  4.0962e+01 +/- 3.0414e+00 1.8398e+00 4.7254e+00 [bar]
Ideal-gas pressure:   5.406945e+01 +/ 9.859469e+00 [bar]
Excess pressure:     -1.402793e+01 +/ 4.903210e+00 [bar]
Pressure:             4.004152e+01 +/ 5.230897e+00 [bar]

Total potential energy/kʙ  -2.992348e+04 (-1.041658e+04 +/- 4.796500e+03) [K]
-------------------------------------------------------------------------------
ExternalField-molecule
    Van der Waals/kʙ        0.000000e+00 ( 0.000000e+00 +/- 0.000000e+00) [K]
Framework-molecule
    Van der Waals/kʙ        0.000000e+00 ( 0.000000e+00 +/- 0.000000e+00) [K]
    Van der Waals (Tail)/kʙ 0.000000e+00 ( 0.000000e+00 +/- 0.000000e+00) [K]
    Coulombic Real/kʙ       0.000000e+00 ( 0.000000e+00 +/- 0.000000e+00) [K]
    Coulombic Fourier/kʙ    0.000000e+00 ( 0.000000e+00 +/- 0.000000e+00) [K]
Molecule-molecule
    Van der Waals/kʙ       -2.318620e+04 (-7.764357e+03 +/- 3.597232e+03) [K]
    Van der Waals (Tail)/kʙ-3.554866e+02 (-1.466944e+02 +/- 6.513653e+01) [K]
    Coulombic Real/kʙ      -6.125713e+03 (-2.283255e+03 +/- 1.030205e+03) [K]
    Coulombic Fourier/kʙ   -2.560783e+02 (-2.222762e+02 +/- 1.059371e+02) [K]
    Molecule Intra/kʙ       0.000000e+00 ( 0.000000e+00 +/- 0.000000e+00) [K]

Current cycle: 5800 out of 6000
===============================================================================

Box:      34.50186   0.00000   0.00000  Average:  33.54894   0.00000   0.00000
           0.00000  34.50186   0.00000             0.00000  33.54894   0.00000
           0.00000   0.00000  34.50186             0.00000   0.00000  33.54894
Lengths:  34.50186  34.50186  34.50186  Average:  33.54894  33.54894  33.54894
Angles:   90.00000  90.00000  90.00000  Average:  90.00000  90.00000  90.00000
Rectangular boundary conditions

net charge:   0.00000000

component 0 (CO2) lambda:  0 occupancy:  1 (1.000000)
    net charge:   0.00000000 [e]

Amount of molecules per component :
-------------------------------------------------------------------------------
Component 0 (CO2)
    molecules:      8.800000e+01 molecules  (5.369488e+01 +/- 1.232252e+01)
    number density: 2.142670e-03 molec./A^3 (1.409639e-03 +/- 2.693767e-04)
    density:        1.565471e+02 kg/m^3     (1.029906e+02 +/- 1.968112e+01)

Average pressure tensor: 
-------------------------------------------------------------------------------
 3.9460e+01 -1.1467e+00 -3.7414e-01 +/- 5.0134e+00 1.1268e+00 3.2449e+00 [bar]
-1.1467e+00  3.9986e+01 -6.0936e-01 +/- 1.1268e+00 6.8275e+00 1.8710e+00 [bar]
-3.7414e-01 -6.0936e-01  4.0975e+01 +/- 3.2449e+00 1.8710e+00 4.5385e+00 [bar]
Ideal-gas pressure:   5.449412e+01 +/ 1.041362e+01 [bar]
Excess pressure:     -1.435368e+01 +/ 5.468184e+00 [bar]
Pressure:             4.014044e+01 +/ 5.177389e+00 [bar]

Total potential energy/kʙ  -2.883840e+04 (-1.066329e+04 +/- 5.175987e+03) [K]
-------------------------------------------------------------------------------
ExternalField-molecule
    Van der Waals/kʙ        0.000000e+00 ( 0.000000e+00 +/- 0.000000e+00) [K]
Framework-molecule
    Van der Waals/kʙ        0.000000e+00 ( 0.000000e+00 +/- 0.000000e+00) [K]
    Van der Waals (Tail)/kʙ 0.000000e+00 ( 0.000000e+00 +/- 0.000000e+00) [K]
    Coulombic Real/kʙ       0.000000e+00 ( 0.000000e+00 +/- 0.000000e+00) [K]
    Coulombic Fourier/kʙ    0.000000e+00 ( 0.000000e+00 +/- 0.000000e+00) [K]
Molecule-molecule
    Van der Waals/kʙ       -2.161829e+04 (-7.952207e+03 +/- 3.890044e+03) [K]
    Van der Waals (Tail)/kʙ-3.501661e+02 (-1.498915e+02 +/- 6.985020e+01) [K]
    Coulombic Real/kʙ      -6.279799e+03 (-2.334426e+03 +/- 1.106490e+03) [K]
    Coulombic Fourier/kʙ   -5.901452e+02 (-2.267606e+02 +/- 1.116607e+02) [K]
    Molecule Intra/kʙ       0.000000e+00 ( 0.000000e+00 +/- 0.000000e+00) [K]

Current cycle: 5900 out of 6000
===============================================================================

Box:      34.58314   0.00000   0.00000  Average:  33.56576   0.00000   0.00000
           0.00000  34.58314   0.00000             0.00000  33.56576   0.00000
           0.00000   0.00000  34.58314             0.00000   0.00000  33.56576
Lengths:  34.58314  34.58314  34.58314  Average:  33.56576  33.56576  33.56576
Angles:   90.00000  90.00000  90.00000  Average:  90.00000  90.00000  90.00000
Rectangular boundary conditions

net charge:   0.00000000

component 0 (CO2) lambda:  0 occupancy:  1 (1.000000)
    net charge:   0.00000000 [e]

Amount of molecules per component :
-------------------------------------------------------------------------------
Component 0 (CO2)
    molecules:      8.800000e+01 molecules  (5.426029e+01 +/- 1.307767e+01)
    number density: 2.127598e-03 molec./A^3 (1.421546e-03 +/- 2.847293e-04)
    density:        1.554459e+02 kg/m^3     (1.038606e+02 +/- 2.080281e+01)

Average pressure tensor: 
-------------------------------------------------------------------------------
 3.9540e+01 -1.0192e+00 -5.5527e-01 +/- 4.9299e+00 1.2434e+00 3.5264e+00 [bar]
-1.0192e+00  4.0411e+01 -5.8399e-01 +/- 1.2434e+00 7.5212e+00 1.8562e+00 [bar]
-5.5527e-01 -5.8399e-01  4.1436e+01 +/- 3.5264e+00 1.8562e+00 5.3920e+00 [bar]
Ideal-gas pressure:   5.495441e+01 +/ 1.100712e+01 [bar]
Excess pressure:     -1.449231e+01 +/ 5.531193e+00 [bar]
Pressure:             4.046211e+01 +/ 5.710845e+00 [bar]

Total potential energy/kʙ  -2.504254e+04 (-1.090150e+04 +/- 5.493694e+03) [K]
-------------------------------------------------------------------------------
ExternalField-molecule
    Van der Waals/kʙ        0.000000e+00 ( 0.000000e+00 +/- 0.000000e+00) [K]
Framework-molecule
    Van der Waals/kʙ        0.000000e+00 ( 0.000000e+00 +/- 0.000000e+00) [K]
    Van der Waals (Tail)/kʙ 0.000000e+00 ( 0.000000e+00 +/- 0.000000e+00) [K]
    Coulombic Real/kʙ       0.000000e+00 ( 0.000000e+00 +/- 0.000000e+00) [K]
    Coulombic Fourier/kʙ    0.000000e+00 ( 0.000000e+00 +/- 0.000000e+00) [K]
Molecule-molecule
    Van der Waals/kʙ       -1.924373e+04 (-8.136406e+03 +/- 4.142708e+03) [K]
    Van der Waals (Tail)/kʙ-3.477030e+02 (-1.529809e+02 +/- 7.380511e+01) [K]
    Coulombic Real/kʙ      -4.733589e+03 (-2.380948e+03 +/- 1.162628e+03) [K]
    Coulombic Fourier/kʙ   -7.175179e+02 (-2.311700e+02 +/- 1.166852e+02) [K]
    Molecule Intra/kʙ       0.000000e+00 ( 0.000000e+00 +/- 0.000000e+00) [K]


Energy statistics             |  Energy [K]   | Recomputed [K]|  Drift [K]    |
===============================================================================
Total potential energy/kʙ     | -1.673315e+04 | -1.668277e+04 | -5.037429e+01 |
    external field VDW/kʙ     |  0.000000e+00 |  0.000000e+00 |  0.000000e+00 |
    external field Real/kʙ    |  0.000000e+00 |  0.000000e+00 |  0.000000e+00 |
    framework-molecule VDW/kʙ |  0.000000e+00 |  0.000000e+00 |  0.000000e+00 |
    framework-molecule Real/kʙ|  0.000000e+00 |  0.000000e+00 |  0.000000e+00 |
    molecule-molecule VDW/kʙ  | -1.304879e+04 | -1.300054e+04 | -4.824930e+01 |
    molecule-molecule Real/kʙ | -2.863615e+03 | -2.861490e+03 | -2.124992e+00 |
    Van der Waals (Tail)/kʙ   | -2.661779e+02 | -2.661779e+02 |  1.298972e-12 |
    Ewald Fourier/kʙ          |  3.914666e+03 |  3.914666e+03 | -1.640807e-12 |
    Ewald self/kʙ             | -1.395875e+06 | -1.395875e+06 | -2.800311e-10 |
    Ewald exclusion/kʙ        |  1.391406e+06 |  1.391406e+06 |  0.000000e+00 |
    intra VDW/kʙ              |  0.000000e+00 |  0.000000e+00 |  0.000000e+00 |
    intra Coulombic/kʙ        |  0.000000e+00 |  0.000000e+00 |  0.000000e+00 |
    polarization/kʙ           |  0.000000e+00 |  0.000000e+00 |  0.000000e+00 |
    dU/dlambda VDW/kʙ         |  0.000000e+00 |  0.000000e+00 |  0.000000e+00 |
    dU/dlambda Real/kʙ        |  0.000000e+00 |  0.000000e+00 |  0.000000e+00 |
    dU/dlambda Ewald/kʙ       |  0.000000e+00 |  0.000000e+00 |  0.000000e+00 |
-------------------------------------------------------------------------------


Monte-Carlo moves statistics
===============================================================================

    Gibbs volume         all:                3027
    Gibbs volume         total:              5984
    Gibbs volume         constructed:        5984
    Gibbs volume         accepted:           3517
    Gibbs volume         fraction:       0.587734
    Gibbs volume         max-change:     0.060820

Component 0 [CO2]
    Reinsertion (CBMC)   all:              148795
    Reinsertion (CBMC)   total:            148795
    Reinsertion (CBMC)   constructed:      148794
    Reinsertion (CBMC)   accepted:          90137
    Reinsertion (CBMC)   fraction:       0.605780
    Reinsertion (CBMC)   max-change:     0.000000

    Gibbs swap (CBMC)    all:              299085
    Gibbs swap (CBMC)    total:            598425
    Gibbs swap (CBMC)    constructed:      592008
    Gibbs swap (CBMC)    accepted:         110147
    Gibbs swap (CBMC)    fraction:       0.184061
    Gibbs swap (CBMC)    max-change:     0.000000

    Translation          all:              149332
    Translation          total:             49954      49593      49785
    Translation          constructed:       49820      49455      49643
    Translation          accepted:          39095      38875      38957
    Translation          fraction:       0.782620   0.783881   0.782505
    Translation          max-change:     1.500000   1.500000   1.500000

    Rotation             all:              149260
    Rotation             total:             49656      49552      50052
    Rotation             constructed:       49619      49510      50013
    Rotation             accepted:          38782      38656      38817
    Rotation             fraction:       0.781013   0.780110   0.775533
    Rotation             max-change:     1.500000   1.500000   1.500000



Production run counting of the MC moves summed over systems and components
===============================================================================

Reinsertion (CBMC)                   297462 (19.8308 [%])
Gibbs volume                           5984 (0.3989 [%])
Gibbs swap (CBMC)                    598425 (39.8950 [%])
Translation                          299228 (19.9485 [%])
Rotation                             298901 (19.9267 [%])

Production count MC-steps:          1500000 [-]
               All summed:          1500000 [-]
               difference:                0 [-]


Production run CPU timings of the MC moves
===============================================================================

Component 0 CO2

Rotation                              6.066302 [s]
    Ewald                             3.819191 [s]
    ExternalField-Molecule            0.006774 [s]
    Framework-Molecule                0.008950 [s]
    Molecule-Molecule                 1.649320 [s]
    Overhead                          0.582067 [s]

Reinsertion (CBMC)                   20.588004 [s]
    Ewald                             3.858314 [s]
    NonEwald                         16.293350 [s]
    Overhead                          0.436340 [s]

Translation                           6.078247 [s]
    Ewald                             3.829423 [s]
    ExternalField-Molecule            0.006968 [s]
    Framework-Molecule                0.011694 [s]
    Molecule-Molecule                 1.663342 [s]
    Overhead                          0.566820 [s]



Gibbs swap (CBMC)                   133.048251 [s]
    Ewald                            14.308189 [s]
    NonEwald                        116.552600 [s]
    Tail                              1.005438 [s]

Gibbs volume                         15.562383 [s]
    Ewald                             5.366205 [s]
    NonEwald                          9.536966 [s]
    Tail                              0.474966 [s]

Property sampling                     0.746532 [s]
Energy/pressure sampling:             0.702828 [s]


Production run CPU timings of the MC moves summed over systems and components
===============================================================================


Translation                          20.686466 [s]
    Ewald                             9.293791 [s]
    ExternalField-Molecule            0.013620 [s]
    Framework-Molecule                0.025853 [s]
    Molecule-Molecule                10.218841 [s]
    Overhead                          1.134361 [s]

Rotation                             20.633094 [s]
    Ewald                             9.276696 [s]
    ExternalField-Molecule            0.013395 [s]
    Framework-Molecule                0.018001 [s]
    Molecule-Molecule                10.132420 [s]
    Overhead                          1.192582 [s]

Reinsertion (CBMC)                   92.393202 [s]
    Ewald                             9.276515 [s]
    NonEwald                         82.427658 [s]
    Overhead                          0.689029 [s]

Gibbs volume                         30.880390 [s]
    Ewald                            10.687241 [s]
    NonEwald                         18.865121 [s]
    Tail                              0.958899 [s]
    Overhead                          0.369129 [s]

Gibbs swap (CBMC)                   242.033825 [s]
    Ewald                            28.333441 [s]
    NonEwald                        209.450655 [s]
    Tail                              1.961867 [s]
    Overhead                          2.287862 [s]

Property sampling:                    1.648435 [s]
Energy/pressure sampling:             5.948708 [s]

Production simulation time:         416.566968 [s]
                All summed:         414.224120 [s]
                  Overhead:           2.342848 [s]


Initalization simulation time:      127.277682 [s]
Equilibration simulation time:        0.000000 [s]
Production simulation time:         416.566968 [s]
Total simulation time:              543.844650 [s]


Energy averages and statistics:
===============================================================================

Framework-molecule energy:
-------------------------------------------------------------------------------



Framework-molecule energy contributions per energy type:
-------------------------------------------------------------------------------



Inter-molecular energy:
-------------------------------------------------------------------------------

    Inter-molecular energy/kʙ 0-0 [CO2-CO2]:
    ---------------------------------------------------------------------------
        Block[  0] -7.633832e+03
        Block[  1] -8.660060e+03
        Block[  2] -1.231553e+04
        Block[  3] -8.231060e+03
        Block[  4] -1.843198e+04
        -----------------------------------------------------------------------
        Average  -1.105449e+04 +/-  5.601178e+03 [K]



Inter-molecular energy contributions per energy type:
-------------------------------------------------------------------------------

    Van der Waals energy/kʙ 0-0 [CO2-CO2]:
    ---------------------------------------------------------------------------
        Block[  0] -5.642474e+03
        Block[  1] -6.459705e+03
        Block[  2] -9.153139e+03
        Block[  3] -6.172008e+03
        Block[  4] -1.380441e+04
        -----------------------------------------------------------------------
        Average  -8.246347e+03 +/-  4.209529e+03 [K]

    VDW Tail-Correction energy/kʙ 0-0 [CO2-CO2]:
    ---------------------------------------------------------------------------
        Block[  0] -1.073904e+02
        Block[  1] -1.227419e+02
        Block[  2] -1.735541e+02
        Block[  3] -1.180689e+02
        Block[  4] -2.521794e+02
        -----------------------------------------------------------------------
        Average  -1.547869e+02 +/-  7.464041e+01 [K]

    Coulomb Real energy/kʙ 0-0 [CO2-CO2]:
    ---------------------------------------------------------------------------
        Block[  0] -1.730291e+03
        Block[  1] -1.893340e+03
        Block[  2] -2.706773e+03
        Block[  3] -1.770072e+03
        Block[  4] -3.995285e+03
        -----------------------------------------------------------------------
        Average  -2.419152e+03 +/-  1.200316e+03 [K]

    Coulomb Fourier energy/kʙ 0-0 [CO2-CO2]:
    ---------------------------------------------------------------------------
        Block[  0] -1.536769e+02
        Block[  1] -1.842722e+02
        Block[  2] -2.820599e+02
        Block[  3] -1.709105e+02
        Block[  4] -3.801074e+02
        -----------------------------------------------------------------------
        Average  -2.342054e+02 +/-  1.186912e+02 [K]


Total energy/kʙ
-------------------------------------------------------------------------------
    Block[  0] -7.633832e+03
    Block[  1] -8.660060e+03
    Block[  2] -1.231553e+04
    Block[  3] -8.231060e+03
    Block[  4] -1.843198e+04
    ---------------------------------------------------------------------------
    Average  -1.105449e+04 +/-  5.601178e+03 [K]

Pressure averages and statistics:
===============================================================================

Average pressure tensor: 
-------------------------------------------------------------------------------
 3.9551e+01 -8.3539e-01 -4.7632e-01 +/- 4.7114e+00 1.5162e+00 3.1657e+00 [bar]
-8.3539e-01  4.0887e+01 -6.5845e-01 +/- 1.5162e+00 8.2878e+00 1.6745e+00 [bar]
-4.7632e-01 -6.5845e-01  4.1459e+01 +/- 3.1657e+00 1.6745e+00 5.2101e+00 [bar]

    Block[  0]  4.705625e+06
    Block[  1]  5.090038e+06
    Block[  2]  5.944916e+06
    Block[  3]  4.980239e+06
    Block[  4]  6.903265e+06
    ---------------------------------------------------------------------------
    Ideal gas pressure   5.524816e+06 +/-  6.721659e-02 [Pa]
                         5.524816e+01 +/-  1.116158e+01 [bar]


    Block[  0] -9.285050e+05
    Block[  1] -1.369336e+06
    Block[  2] -1.672450e+06
    Block[  3] -1.232311e+06
    Block[  4] -2.105267e+06
    ---------------------------------------------------------------------------
    Excess pressure  -1.461574e+06 +/-  5.566007e+05 [Pa]
                     -1.461574e+01 +/-  5.566007e+00 [bar]


    Block[  0]  3.777120e+06
    Block[  1]  3.720702e+06
    Block[  2]  4.272466e+06
    Block[  3]  3.747928e+06
    Block[  4]  4.797998e+06
    ---------------------------------------------------------------------------
    Pressure average   4.063243e+06 +/-  5.830469e+05 [Pa]
                       4.063243e+01 +/-  5.830469e+00 [bar]


Enthalpy of adsorption
===============================================================================

Component 0 [CO2]
-------------------------------------------------------------------------------
    Block[  0] -5.944123e+02
    Block[  1] -6.203704e+02
    Block[  2] -6.748754e+02
    Block[  3] -5.993017e+02
    Block[  4] -6.949892e+02
    ---------------------------------------------------------------------------
    Enthalpy of adsorption: -6.367898e+02 +/-  5.658032e+01 [K]
                            -5.294567e+00 +/-  4.704351e-01 [kJ/mol]
    Warning: need to subtract the ideal-gas energy.


Densities
===============================================================================

Component 0 (CO2)
    Block[  0] 44.805
    Block[  1] 49.52916666666667
    Block[  2] 59.37416666666667
    Block[  3] 48.25916666666667
    Block[  4] 71.16333333333334
    -----------------------------------------------------------------------
    Density average   5.462617e+01 +/-  1.329867e+01 [molecules]
    Density average   1.429144e-03 +/-  2.887248e-04 [molec/A^3]
    Density average   1.044157e+02 +/-  2.109473e+01 [kg.m⁻³]

