Compiler and run-time data
===============================================================================
RASPA 3.0.4

Random seed: 33362022

Compiled as a 64-bits application
Compiler: gcc Ubuntu Clang 18.1.3 (1ubuntu1)
Compile Date = Mar 15 2025, Compile Time = 19:39:45

2025-06-03 11:00:44.300942
Simulation started on Tue, Jun 03
The start time was 11:00:00

Hostname:    c108
OS type:     Linux on x86_64
OS release:  6.8.0-58-generic
OS version:  #60-Ubuntu SMP PREEMPT_DYNAMIC Fri Mar 14 18:29:48 UTC 2025


Mutual consistent basic set of units:
===============================================================================

Unit of temperature: 1 [K]
Unit of length:      1e-10 [m]
Unit of time:        1e-12 [s]
Unit of mass:        1.6605402e-27 [kg]
Unit of charge:      1.60217733e-19 [C/particle]


Boltzmann constant (internal units):          0.8314464919307584 [-]
represents conversion from energy (internal units) to temperature (in Kelvin)

Derived units and their conversion factors:
===============================================================================

Unit of energy:                           1.6605402000000002e-23 [J]
Unit of energy:                           10.000008872307538 [J.mol⁻¹]
Unit of velocity:                         100 [m.s⁻¹]
Unit of force:                            1.6605402000000002e-13 [N]
Unit of diffusion:                        1.0000000000000002e-08 [m².s⁻¹]
Unit of acceleration:                     1.0000000000000002e-08 [m².s⁻¹]
Unit of torque:                           1.6605402000000002e-23 [N.m]
Unit of pressure:                         16605402 [Pa]
Unit of volume:                           1e-30 [m³]
Unit of density:                          1660.5402 [kg.m⁻³]
Unit of dynamic viscosity:                1.6605401999999997e-05 [N.s.m⁻²]
Unit of enthalpy:                         1.6605402000000002e-23 [J]
Unit of polarizability:                   1.5458657349975198e-35 [-]
Unit of Coulomb potential:                167101.08000665612 [K]
Unit of dielectric constant:              1.5458657349975193e-05 [s².C².kg⁻¹.m⁻³]
Unit of dipole moment:                    1.60217733e-29 [C.m]
Unit of Debye:                            4.803206799099162 [C.m]
Unit of electric potential:               0.00010364272224473431 [V]
Unit of electric field:                   1036427.222447343 [V.m⁻¹]
Unit of isothermal compressibility:       6.02213665167516e-08 [Pa⁻¹]
Unit of heat capacity:                    10.000008872307538 [J.mol⁻¹.K⁻¹]
Unit of volumetric expansion coefficient: 1 [K⁻¹]


Internal conversion factors:
===============================================================================

Energy (internal units) to Kelvin:      1.202724284692786 [-]
Kelvin to energy (internal units):      0.8314457542157567 [-]


System definitions
===============================================================================

Temperature:          280 [K]
Beta:                 0.004295440062697377 [-]
Pressure:             0 [Pa]
Helium void fraction: 1 [-]

Box:      30.00000   0.00000   0.00000
           0.00000  30.00000   0.00000
           0.00000   0.00000  30.00000
Lengths:  30.00000  30.00000  30.00000
Angles:   90.00000  90.00000  90.00000
Rectangular boundary conditions



Property measurement settings
===============================================================================




Pseudo-atoms
===============================================================================

  0 - C_co2    framework-atom: false
  1 - O_co2    framework-atom: false

  0 - C_co2    mass: 12.00000, charge:  0.70000
  1 - O_co2    mass: 15.99940, charge: -0.35000

  0 - C_co2    polarizability:  0.00000
  1 - O_co2    polarizability:  0.00000

  0 - J. J. Potoff et al., AIChE J. 2001, 47, 1676–1682.
  1 - J. J. Potoff et al., AIChE J. 2001, 47, 1676–1682.

Force field status
===============================================================================

Cutoff Framework-Molecule VDW:  11.00000 [Å]
Cutoff Molecule-Molecule VDW:   11.00000 [Å]
Cutoff Coulomb:                 11.00000 [Å]

Overlap-criteria VDW:           1.000000e+05 [K]

C_co2    - C_co2    Lennard-Jones p₀/kʙ:  27.00000 [K], p₁:  2.80000 [Å]
                                  shift:   0.00000 [K], tailcorrections: true
C_co2    - O_co2    Lennard-Jones p₀/kʙ:  46.18441 [K], p₁:  2.92500 [Å]
                                  shift:   0.00000 [K], tailcorrections: true
O_co2    - O_co2    Lennard-Jones p₀/kʙ:  79.00000 [K], p₁:  3.05000 [Å]
                                  shift:   0.00000 [K], tailcorrections: true

Ewald precision: 1e-06
Ewald alpha: 0.2903408740940883
Ewald k-vectors: 9 9 9


Component definitions
===============================================================================

Component 0 [CO2]

    Type: Adsorbate

    Critical temperature:  304.1282 [K]
    Critical pressure:     7377300 [Pa]
    Acentric factor:       0.22394 [-]

    Mol-fraction:                 1 [-]
    Swappable:                   true

    Mass:                         43.9988 [-]
    Fugacity coefficient:         -nan [-]
    Bulk fluid density:           0 [-]
    Compressibility:              1 [-]
    Excess molecules:             0 [-]

    Number Of Atoms:    3
    CBMC starting bead: 0
      0: O_co2  position  0.00000 -0.00000  1.16000, charge -0.35000
      1: C_co2  position  0.00000 -0.00000  0.00000, charge  0.70000
      2: O_co2  position  0.00000 -0.00000 -1.16000, charge -0.35000
    Diagonalized inertia-vector:      43.05758528 43.05758528 0.00000000
    Translational degrees of freedom: 3
    Rotational degrees of freedom:    2
    Shape of the molecule is: 'Linear'
    Net-charge:        0.00000000 [e]

    Move probabilities:
    Translation:                   0.199203 [-]
    Random translation:            0.000000 [-]
    Rotation:                      0.199203 [-]
    Random rotation:               0.000000 [-]
    Volume change:                 0.000000 [-]
    Reinsertion (CBMC):            0.199203 [-]
    Identity change (CBMC):        0.000000 [-]
    Swap:                          0.000000 [-]
    Swap (CBMC):                   0.000000 [-]
    Swap (CFCMC):                  0.000000 [-]
    Swap (CB/CFCMC):               0.000000 [-]
    Gibbs volume:                  0.003984 [-]
    Gibbs swap (CBMC):             0.398406 [-]
    Gibbs swap (CFCMC):            0.000000 [-]
    Widom:                         0.000000 [-]
    Widom (CFCMC):                 0.000000 [-]
    Widom (CB/CFCMC):              0.000000 [-]
    Parallel tempering:            0.000000 [-]
    Hybrid MC:                     0.000000 [-]

    number of blocking-pockets: 0

    number of bonds: 0





Number of pseudo-atoms
===============================================================================

Component   0 (CO2)
-------------------------------------------------------------------------------
    index   0 (C_co2): 210 atoms
    index   1 (O_co2): 420 atoms

Total number of pseudo-atoms:
-------------------------------------------------------------------------------
    index   0 (C_co2): 210 atoms
    index   1 (O_co2): 420 atoms




Energy status Recomputed from scratch
===============================================================================

Total potential energy/kʙ       -7.545760e+04 [K]
    external field VDW/kʙ        0.000000e+00 [K]
    external field Real/kʙ       0.000000e+00 [K]
    framework-molecule VDW/kʙ    0.000000e+00 [K]
    framework-molecule Real/kʙ   0.000000e+00 [K]
    molecule-molecule VDW/kʙ    -5.630461e+04 [K]
    molecule-molecule Real/kʙ   -1.278636e+04 [K]
    Van der Waals (Tail)/kʙ     -3.937786e+03 [K]
    Ewald Fourier/kʙ             1.663191e+04 [K]
    Ewald self/kʙ               -4.224926e+06 [K]
    Ewald exclusion/kʙ           4.205866e+06 [K]
    intra VDW/kʙ                 0.000000e+00 [K]
    intra Coulombic/kʙ           0.000000e+00 [K]
    polarization/kʙ              0.000000e+00 [K]
    dU/dlambda VDW/kʙ            0.000000e+00 [K]
    dU/dlambda Real/kʙ           0.000000e+00 [K]
    dU/dlambda Ewald/kʙ          0.000000e+00 [K]





Initialization: Current cycle: 0 out of 2000
===============================================================================

Box:      30.00000   0.00000   0.00000
           0.00000  30.00000   0.00000
           0.00000   0.00000  30.00000
Lengths:  30.00000  30.00000  30.00000
Angles:   90.00000  90.00000  90.00000
Rectangular boundary conditions

net charge:   0.00000000

component   0 (CO2) lambda:  0 occupancy:  0 (0.000000)
    net charge:   0.00000000 [e]

Amount of molecules per component :
-------------------------------------------------------------------------------
Component 0 (CO2)
    molecules:         1.970000e+02 molecules
    number density:    7.296296e-03 molec/A^3
    density:           5.330799e+02 kg/m^3

Total potential energy/kʙ       -1.054399e+05 [K]
-------------------------------------------------------------------------------
    external field VDW/kʙ        0.000000e+00 [K]
    external field Real/kʙ       0.000000e+00 [K]
    framework-molecule VDW/kʙ    0.000000e+00 [K]
    framework-molecule Real/kʙ   0.000000e+00 [K]
    molecule-molecule VDW/kʙ    -8.186491e+04 [K]
    molecule-molecule Real/kʙ   -1.693542e+04 [K]
    Van der Waals (Tail)/kʙ     -3.465341e+03 [K]
    Ewald Fourier/kʙ             1.470653e+04 [K]
    Ewald self/kʙ               -3.963383e+06 [K]
    Ewald exclusion/kʙ           3.945502e+06 [K]
    intra VDW/kʙ                 0.000000e+00 [K]
    intra Coulombic/kʙ           0.000000e+00 [K]
    polarization/kʙ              0.000000e+00 [K]
    dU/dlambda VDW/kʙ            0.000000e+00 [K]
    dU/dlambda Real/kʙ           0.000000e+00 [K]
    dU/dlambda Ewald/kʙ          0.000000e+00 [K]


Initialization: Current cycle: 100 out of 2000
===============================================================================

Box:      29.99955   0.00000   0.00000
           0.00000  29.99955   0.00000
           0.00000   0.00000  29.99955
Lengths:  29.99955  29.99955  29.99955
Angles:   90.00000  90.00000  90.00000
Rectangular boundary conditions

net charge:   0.00000000

component   0 (CO2) lambda:  0 occupancy:  0 (0.000000)
    net charge:   0.00000000 [e]

Amount of molecules per component :
-------------------------------------------------------------------------------
Component 0 (CO2)
    molecules:         2.120000e+02 molecules
    number density:    7.852202e-03 molec/A^3
    density:           5.736953e+02 kg/m^3

Total potential energy/kʙ       -1.781153e+05 [K]
-------------------------------------------------------------------------------
    external field VDW/kʙ        0.000000e+00 [K]
    external field Real/kʙ       0.000000e+00 [K]
    framework-molecule VDW/kʙ    0.000000e+00 [K]
    framework-molecule Real/kʙ   0.000000e+00 [K]
    molecule-molecule VDW/kʙ    -1.319587e+05 [K]
    molecule-molecule Real/kʙ   -3.587707e+04 [K]
    Van der Waals (Tail)/kʙ     -4.013328e+03 [K]
    Ewald Fourier/kʙ             1.297610e+04 [K]
    Ewald self/kʙ               -4.265164e+06 [K]
    Ewald exclusion/kʙ           4.245921e+06 [K]
    intra VDW/kʙ                 0.000000e+00 [K]
    intra Coulombic/kʙ           0.000000e+00 [K]
    polarization/kʙ              0.000000e+00 [K]
    dU/dlambda VDW/kʙ            0.000000e+00 [K]
    dU/dlambda Real/kʙ           0.000000e+00 [K]
    dU/dlambda Ewald/kʙ          0.000000e+00 [K]


Initialization: Current cycle: 200 out of 2000
===============================================================================

Box:      28.81601   0.00000   0.00000
           0.00000  28.81601   0.00000
           0.00000   0.00000  28.81601
Lengths:  28.81601  28.81601  28.81601
Angles:   90.00000  90.00000  90.00000
Rectangular boundary conditions

net charge:   0.00000000

component   0 (CO2) lambda:  0 occupancy:  0 (0.000000)
    net charge:   0.00000000 [e]

Amount of molecules per component :
-------------------------------------------------------------------------------
Component 0 (CO2)
    molecules:         2.280000e+02 molecules
    number density:    9.528693e-03 molec/A^3
    density:           6.961826e+02 kg/m^3

Total potential energy/kʙ       -2.261832e+05 [K]
-------------------------------------------------------------------------------
    external field VDW/kʙ        0.000000e+00 [K]
    external field Real/kʙ       0.000000e+00 [K]
    framework-molecule VDW/kʙ    0.000000e+00 [K]
    framework-molecule Real/kʙ   0.000000e+00 [K]
    molecule-molecule VDW/kʙ    -1.711944e+05 [K]
    molecule-molecule Real/kʙ   -4.201221e+04 [K]
    Van der Waals (Tail)/kʙ     -5.237759e+03 [K]
    Ewald Fourier/kʙ             1.295570e+04 [K]
    Ewald self/kʙ               -4.587063e+06 [K]
    Ewald exclusion/kʙ           4.566368e+06 [K]
    intra VDW/kʙ                 0.000000e+00 [K]
    intra Coulombic/kʙ           0.000000e+00 [K]
    polarization/kʙ              0.000000e+00 [K]
    dU/dlambda VDW/kʙ            0.000000e+00 [K]
    dU/dlambda Real/kʙ           0.000000e+00 [K]
    dU/dlambda Ewald/kʙ          0.000000e+00 [K]


Initialization: Current cycle: 300 out of 2000
===============================================================================

Box:      28.84902   0.00000   0.00000
           0.00000  28.84902   0.00000
           0.00000   0.00000  28.84902
Lengths:  28.84902  28.84902  28.84902
Angles:   90.00000  90.00000  90.00000
Rectangular boundary conditions

net charge:   0.00000000

component   0 (CO2) lambda:  0 occupancy:  0 (0.000000)
    net charge:   0.00000000 [e]

Amount of molecules per component :
-------------------------------------------------------------------------------
Component 0 (CO2)
    molecules:         2.110000e+02 molecules
    number density:    8.787986e-03 molec/A^3
    density:           6.420653e+02 kg/m^3

Total potential energy/kʙ       -2.040942e+05 [K]
-------------------------------------------------------------------------------
    external field VDW/kʙ        0.000000e+00 [K]
    external field Real/kʙ       0.000000e+00 [K]
    framework-molecule VDW/kʙ    0.000000e+00 [K]
    framework-molecule Real/kʙ   0.000000e+00 [K]
    molecule-molecule VDW/kʙ    -1.554286e+05 [K]
    molecule-molecule Real/kʙ   -3.796679e+04 [K]
    Van der Waals (Tail)/kʙ     -4.470428e+03 [K]
    Ewald Fourier/kʙ             1.292310e+04 [K]
    Ewald self/kʙ               -4.245045e+06 [K]
    Ewald exclusion/kʙ           4.225893e+06 [K]
    intra VDW/kʙ                 0.000000e+00 [K]
    intra Coulombic/kʙ           0.000000e+00 [K]
    polarization/kʙ              0.000000e+00 [K]
    dU/dlambda VDW/kʙ            0.000000e+00 [K]
    dU/dlambda Real/kʙ           0.000000e+00 [K]
    dU/dlambda Ewald/kʙ          0.000000e+00 [K]


Initialization: Current cycle: 400 out of 2000
===============================================================================

Box:      27.34611   0.00000   0.00000
           0.00000  27.34611   0.00000
           0.00000   0.00000  27.34611
Lengths:  27.34611  27.34611  27.34611
Angles:   90.00000  90.00000  90.00000
Rectangular boundary conditions

net charge:   0.00000000

component   0 (CO2) lambda:  0 occupancy:  0 (0.000000)
    net charge:   0.00000000 [e]

Amount of molecules per component :
-------------------------------------------------------------------------------
Component 0 (CO2)
    molecules:         2.040000e+02 molecules
    number density:    9.975702e-03 molec/A^3
    density:           7.288418e+02 kg/m^3

Total potential energy/kʙ       -1.966578e+05 [K]
-------------------------------------------------------------------------------
    external field VDW/kʙ        0.000000e+00 [K]
    external field Real/kʙ       0.000000e+00 [K]
    framework-molecule VDW/kʙ    0.000000e+00 [K]
    framework-molecule Real/kʙ   0.000000e+00 [K]
    molecule-molecule VDW/kʙ    -1.494494e+05 [K]
    molecule-molecule Real/kʙ   -3.562423e+04 [K]
    Van der Waals (Tail)/kʙ     -4.906264e+03 [K]
    Ewald Fourier/kʙ             1.183832e+04 [K]
    Ewald self/kʙ               -4.104214e+06 [K]
    Ewald exclusion/kʙ           4.085698e+06 [K]
    intra VDW/kʙ                 0.000000e+00 [K]
    intra Coulombic/kʙ           0.000000e+00 [K]
    polarization/kʙ              0.000000e+00 [K]
    dU/dlambda VDW/kʙ            0.000000e+00 [K]
    dU/dlambda Real/kʙ           0.000000e+00 [K]
    dU/dlambda Ewald/kʙ          0.000000e+00 [K]


Initialization: Current cycle: 500 out of 2000
===============================================================================

Box:      26.65828   0.00000   0.00000
           0.00000  26.65828   0.00000
           0.00000   0.00000  26.65828
Lengths:  26.65828  26.65828  26.65828
Angles:   90.00000  90.00000  90.00000
Rectangular boundary conditions

net charge:   0.00000000

component   0 (CO2) lambda:  0 occupancy:  0 (0.000000)
    net charge:   0.00000000 [e]

Amount of molecules per component :
-------------------------------------------------------------------------------
Component 0 (CO2)
    molecules:         2.170000e+02 molecules
    number density:    1.145417e-02 molec/A^3
    density:           8.368610e+02 kg/m^3

Total potential energy/kʙ       -2.570917e+05 [K]
-------------------------------------------------------------------------------
    external field VDW/kʙ        0.000000e+00 [K]
    external field Real/kʙ       0.000000e+00 [K]
    framework-molecule VDW/kʙ    0.000000e+00 [K]
    framework-molecule Real/kʙ   0.000000e+00 [K]
    molecule-molecule VDW/kʙ    -1.894620e+05 [K]
    molecule-molecule Real/kʙ   -5.330543e+04 [K]
    Van der Waals (Tail)/kʙ     -5.992396e+03 [K]
    Ewald Fourier/kʙ             1.136428e+04 [K]
    Ewald self/kʙ               -4.365757e+06 [K]
    Ewald exclusion/kʙ           4.346061e+06 [K]
    intra VDW/kʙ                 0.000000e+00 [K]
    intra Coulombic/kʙ           0.000000e+00 [K]
    polarization/kʙ              0.000000e+00 [K]
    dU/dlambda VDW/kʙ            0.000000e+00 [K]
    dU/dlambda Real/kʙ           0.000000e+00 [K]
    dU/dlambda Ewald/kʙ          0.000000e+00 [K]


Initialization: Current cycle: 600 out of 2000
===============================================================================

Box:      26.70450   0.00000   0.00000
           0.00000  26.70450   0.00000
           0.00000   0.00000  26.70450
Lengths:  26.70450  26.70450  26.70450
Angles:   90.00000  90.00000  90.00000
Rectangular boundary conditions

net charge:   0.00000000

component   0 (CO2) lambda:  0 occupancy:  0 (0.000000)
    net charge:   0.00000000 [e]

Amount of molecules per component :
-------------------------------------------------------------------------------
Component 0 (CO2)
    molecules:         2.200000e+02 molecules
    number density:    1.155233e-02 molec/A^3
    density:           8.440327e+02 kg/m^3

Total potential energy/kʙ       -2.567003e+05 [K]
-------------------------------------------------------------------------------
    external field VDW/kʙ        0.000000e+00 [K]
    external field Real/kʙ       0.000000e+00 [K]
    framework-molecule VDW/kʙ    0.000000e+00 [K]
    framework-molecule Real/kʙ   0.000000e+00 [K]
    molecule-molecule VDW/kʙ    -1.884732e+05 [K]
    molecule-molecule Real/kʙ   -5.388315e+04 [K]
    Van der Waals (Tail)/kʙ     -6.127304e+03 [K]
    Ewald Fourier/kʙ             1.175173e+04 [K]
    Ewald self/kʙ               -4.426113e+06 [K]
    Ewald exclusion/kʙ           4.406145e+06 [K]
    intra VDW/kʙ                 0.000000e+00 [K]
    intra Coulombic/kʙ           0.000000e+00 [K]
    polarization/kʙ              0.000000e+00 [K]
    dU/dlambda VDW/kʙ            0.000000e+00 [K]
    dU/dlambda Real/kʙ           0.000000e+00 [K]
    dU/dlambda Ewald/kʙ          0.000000e+00 [K]


Initialization: Current cycle: 700 out of 2000
===============================================================================

Box:      26.03284   0.00000   0.00000
           0.00000  26.03284   0.00000
           0.00000   0.00000  26.03284
Lengths:  26.03284  26.03284  26.03284
Angles:   90.00000  90.00000  90.00000
Rectangular boundary conditions

net charge:   0.00000000

component   0 (CO2) lambda:  0 occupancy:  0 (0.000000)
    net charge:   0.00000000 [e]

Amount of molecules per component :
-------------------------------------------------------------------------------
Component 0 (CO2)
    molecules:         2.040000e+02 molecules
    number density:    1.156287e-02 molec/A^3
    density:           8.448029e+02 kg/m^3

Total potential energy/kʙ       -2.474069e+05 [K]
-------------------------------------------------------------------------------
    external field VDW/kʙ        0.000000e+00 [K]
    external field Real/kʙ       0.000000e+00 [K]
    framework-molecule VDW/kʙ    0.000000e+00 [K]
    framework-molecule Real/kʙ   0.000000e+00 [K]
    molecule-molecule VDW/kʙ    -1.802160e+05 [K]
    molecule-molecule Real/kʙ   -5.256044e+04 [K]
    Van der Waals (Tail)/kʙ     -5.686867e+03 [K]
    Ewald Fourier/kʙ             9.572480e+03 [K]
    Ewald self/kʙ               -4.104214e+06 [K]
    Ewald exclusion/kʙ           4.085698e+06 [K]
    intra VDW/kʙ                 0.000000e+00 [K]
    intra Coulombic/kʙ           0.000000e+00 [K]
    polarization/kʙ              0.000000e+00 [K]
    dU/dlambda VDW/kʙ            0.000000e+00 [K]
    dU/dlambda Real/kʙ           0.000000e+00 [K]
    dU/dlambda Ewald/kʙ          0.000000e+00 [K]


Initialization: Current cycle: 800 out of 2000
===============================================================================

Box:      25.62919   0.00000   0.00000
           0.00000  25.62919   0.00000
           0.00000   0.00000  25.62919
Lengths:  25.62919  25.62919  25.62919
Angles:   90.00000  90.00000  90.00000
Rectangular boundary conditions

net charge:   0.00000000

component   0 (CO2) lambda:  0 occupancy:  0 (0.000000)
    net charge:   0.00000000 [e]

Amount of molecules per component :
-------------------------------------------------------------------------------
Component 0 (CO2)
    molecules:         2.140000e+02 molecules
    number density:    1.271187e-02 molec/A^3
    density:           9.287506e+02 kg/m^3

Total potential energy/kʙ       -2.781561e+05 [K]
-------------------------------------------------------------------------------
    external field VDW/kʙ        0.000000e+00 [K]
    external field Real/kʙ       0.000000e+00 [K]
    framework-molecule VDW/kʙ    0.000000e+00 [K]
    framework-molecule Real/kʙ   0.000000e+00 [K]
    molecule-molecule VDW/kʙ    -2.055003e+05 [K]
    molecule-molecule Real/kʙ   -5.706802e+04 [K]
    Van der Waals (Tail)/kʙ     -6.558437e+03 [K]
    Ewald Fourier/kʙ             1.039445e+04 [K]
    Ewald self/kʙ               -4.305401e+06 [K]
    Ewald exclusion/kʙ           4.285977e+06 [K]
    intra VDW/kʙ                 0.000000e+00 [K]
    intra Coulombic/kʙ           0.000000e+00 [K]
    polarization/kʙ              0.000000e+00 [K]
    dU/dlambda VDW/kʙ            0.000000e+00 [K]
    dU/dlambda Real/kʙ           0.000000e+00 [K]
    dU/dlambda Ewald/kʙ          0.000000e+00 [K]


Initialization: Current cycle: 900 out of 2000
===============================================================================

Box:      27.49226   0.00000   0.00000
           0.00000  27.49226   0.00000
           0.00000   0.00000  27.49226
Lengths:  27.49226  27.49226  27.49226
Angles:   90.00000  90.00000  90.00000
Rectangular boundary conditions

net charge:   0.00000000

component   0 (CO2) lambda:  0 occupancy:  0 (0.000000)
    net charge:   0.00000000 [e]

Amount of molecules per component :
-------------------------------------------------------------------------------
Component 0 (CO2)
    molecules:         2.120000e+02 molecules
    number density:    1.020245e-02 molec/A^3
    density:           7.454084e+02 kg/m^3

Total potential energy/kʙ       -2.287819e+05 [K]
-------------------------------------------------------------------------------
    external field VDW/kʙ        0.000000e+00 [K]
    external field Real/kʙ       0.000000e+00 [K]
    framework-molecule VDW/kʙ    0.000000e+00 [K]
    framework-molecule Real/kʙ   0.000000e+00 [K]
    molecule-molecule VDW/kʙ    -1.703541e+05 [K]
    molecule-molecule Real/kʙ   -4.573694e+04 [K]
    Van der Waals (Tail)/kʙ     -5.214559e+03 [K]
    Ewald Fourier/kʙ             1.176595e+04 [K]
    Ewald self/kʙ               -4.265164e+06 [K]
    Ewald exclusion/kʙ           4.245921e+06 [K]
    intra VDW/kʙ                 0.000000e+00 [K]
    intra Coulombic/kʙ           0.000000e+00 [K]
    polarization/kʙ              0.000000e+00 [K]
    dU/dlambda VDW/kʙ            0.000000e+00 [K]
    dU/dlambda Real/kʙ           0.000000e+00 [K]
    dU/dlambda Ewald/kʙ          0.000000e+00 [K]


Initialization: Current cycle: 1000 out of 2000
===============================================================================

Box:      27.93428   0.00000   0.00000
           0.00000  27.93428   0.00000
           0.00000   0.00000  27.93428
Lengths:  27.93428  27.93428  27.93428
Angles:   90.00000  90.00000  90.00000
Rectangular boundary conditions

net charge:   0.00000000

component   0 (CO2) lambda:  0 occupancy:  0 (0.000000)
    net charge:   0.00000000 [e]

Amount of molecules per component :
-------------------------------------------------------------------------------
Component 0 (CO2)
    molecules:         2.090000e+02 molecules
    number density:    9.588129e-03 molec/A^3
    density:           7.005251e+02 kg/m^3

Total potential energy/kʙ       -2.117041e+05 [K]
-------------------------------------------------------------------------------
    external field VDW/kʙ        0.000000e+00 [K]
    external field Real/kʙ       0.000000e+00 [K]
    framework-molecule VDW/kʙ    0.000000e+00 [K]
    framework-molecule Real/kʙ   0.000000e+00 [K]
    molecule-molecule VDW/kʙ    -1.574651e+05 [K]
    molecule-molecule Real/kʙ   -4.281018e+04 [K]
    Van der Waals (Tail)/kʙ     -4.831227e+03 [K]
    Ewald Fourier/kʙ             1.237230e+04 [K]
    Ewald self/kʙ               -4.204808e+06 [K]
    Ewald exclusion/kʙ           4.185838e+06 [K]
    intra VDW/kʙ                 0.000000e+00 [K]
    intra Coulombic/kʙ           0.000000e+00 [K]
    polarization/kʙ              0.000000e+00 [K]
    dU/dlambda VDW/kʙ            0.000000e+00 [K]
    dU/dlambda Real/kʙ           0.000000e+00 [K]
    dU/dlambda Ewald/kʙ          0.000000e+00 [K]


Initialization: Current cycle: 1100 out of 2000
===============================================================================

Box:      27.69255   0.00000   0.00000
           0.00000  27.69255   0.00000
           0.00000   0.00000  27.69255
Lengths:  27.69255  27.69255  27.69255
Angles:   90.00000  90.00000  90.00000
Rectangular boundary conditions

net charge:   0.00000000

component   0 (CO2) lambda:  0 occupancy:  0 (0.000000)
    net charge:   0.00000000 [e]

Amount of molecules per component :
-------------------------------------------------------------------------------
Component 0 (CO2)
    molecules:         2.050000e+02 molecules
    number density:    9.653057e-03 molec/A^3
    density:           7.052689e+02 kg/m^3

Total potential energy/kʙ       -2.127275e+05 [K]
-------------------------------------------------------------------------------
    external field VDW/kʙ        0.000000e+00 [K]
    external field Real/kʙ       0.000000e+00 [K]
    framework-molecule VDW/kʙ    0.000000e+00 [K]
    framework-molecule Real/kʙ   0.000000e+00 [K]
    molecule-molecule VDW/kʙ    -1.518916e+05 [K]
    molecule-molecule Real/kʙ   -4.835733e+04 [K]
    Van der Waals (Tail)/kʙ     -4.770853e+03 [K]
    Ewald Fourier/kʙ             1.089920e+04 [K]
    Ewald self/kʙ               -4.124333e+06 [K]
    Ewald exclusion/kʙ           4.105726e+06 [K]
    intra VDW/kʙ                 0.000000e+00 [K]
    intra Coulombic/kʙ           0.000000e+00 [K]
    polarization/kʙ              0.000000e+00 [K]
    dU/dlambda VDW/kʙ            0.000000e+00 [K]
    dU/dlambda Real/kʙ           0.000000e+00 [K]
    dU/dlambda Ewald/kʙ          0.000000e+00 [K]


Initialization: Current cycle: 1200 out of 2000
===============================================================================

Box:      27.47181   0.00000   0.00000
           0.00000  27.47181   0.00000
           0.00000   0.00000  27.47181
Lengths:  27.47181  27.47181  27.47181
Angles:   90.00000  90.00000  90.00000
Rectangular boundary conditions

net charge:   0.00000000

component   0 (CO2) lambda:  0 occupancy:  0 (0.000000)
    net charge:   0.00000000 [e]

Amount of molecules per component :
-------------------------------------------------------------------------------
Component 0 (CO2)
    molecules:         2.150000e+02 molecules
    number density:    1.036995e-02 molec/A^3
    density:           7.576466e+02 kg/m^3

Total potential energy/kʙ       -2.273636e+05 [K]
-------------------------------------------------------------------------------
    external field VDW/kʙ        0.000000e+00 [K]
    external field Real/kʙ       0.000000e+00 [K]
    framework-molecule VDW/kʙ    0.000000e+00 [K]
    framework-molecule Real/kʙ   0.000000e+00 [K]
    molecule-molecule VDW/kʙ    -1.724239e+05 [K]
    molecule-molecule Real/kʙ   -4.258970e+04 [K]
    Van der Waals (Tail)/kʙ     -5.375175e+03 [K]
    Ewald Fourier/kʙ             1.253972e+04 [K]
    Ewald self/kʙ               -4.325520e+06 [K]
    Ewald exclusion/kʙ           4.306005e+06 [K]
    intra VDW/kʙ                 0.000000e+00 [K]
    intra Coulombic/kʙ           0.000000e+00 [K]
    polarization/kʙ              0.000000e+00 [K]
    dU/dlambda VDW/kʙ            0.000000e+00 [K]
    dU/dlambda Real/kʙ           0.000000e+00 [K]
    dU/dlambda Ewald/kʙ          0.000000e+00 [K]


Initialization: Current cycle: 1300 out of 2000
===============================================================================

Box:      28.05291   0.00000   0.00000
           0.00000  28.05291   0.00000
           0.00000   0.00000  28.05291
Lengths:  28.05291  28.05291  28.05291
Angles:   90.00000  90.00000  90.00000
Rectangular boundary conditions

net charge:   0.00000000

component   0 (CO2) lambda:  0 occupancy:  0 (0.000000)
    net charge:   0.00000000 [e]

Amount of molecules per component :
-------------------------------------------------------------------------------
Component 0 (CO2)
    molecules:         2.160000e+02 molecules
    number density:    9.784078e-03 molec/A^3
    density:           7.148415e+02 kg/m^3

Total potential energy/kʙ       -2.231357e+05 [K]
-------------------------------------------------------------------------------
    external field VDW/kʙ        0.000000e+00 [K]
    external field Real/kʙ       0.000000e+00 [K]
    framework-molecule VDW/kʙ    0.000000e+00 [K]
    framework-molecule Real/kʙ   0.000000e+00 [K]
    molecule-molecule VDW/kʙ    -1.671272e+05 [K]
    molecule-molecule Real/kʙ   -4.342269e+04 [K]
    Van der Waals (Tail)/kʙ     -5.095079e+03 [K]
    Ewald Fourier/kʙ             1.211460e+04 [K]
    Ewald self/kʙ               -4.345638e+06 [K]
    Ewald exclusion/kʙ           4.326033e+06 [K]
    intra VDW/kʙ                 0.000000e+00 [K]
    intra Coulombic/kʙ           0.000000e+00 [K]
    polarization/kʙ              0.000000e+00 [K]
    dU/dlambda VDW/kʙ            0.000000e+00 [K]
    dU/dlambda Real/kʙ           0.000000e+00 [K]
    dU/dlambda Ewald/kʙ          0.000000e+00 [K]


Initialization: Current cycle: 1400 out of 2000
===============================================================================

Box:      27.19275   0.00000   0.00000
           0.00000  27.19275   0.00000
           0.00000   0.00000  27.19275
Lengths:  27.19275  27.19275  27.19275
Angles:   90.00000  90.00000  90.00000
Rectangular boundary conditions

net charge:   0.00000000

component   0 (CO2) lambda:  0 occupancy:  0 (0.000000)
    net charge:   0.00000000 [e]

Amount of molecules per component :
-------------------------------------------------------------------------------
Component 0 (CO2)
    molecules:         2.160000e+02 molecules
    number density:    1.074222e-02 molec/A^3
    density:           7.848452e+02 kg/m^3

Total potential energy/kʙ       -2.399514e+05 [K]
-------------------------------------------------------------------------------
    external field VDW/kʙ        0.000000e+00 [K]
    external field Real/kʙ       0.000000e+00 [K]
    framework-molecule VDW/kʙ    0.000000e+00 [K]
    framework-molecule Real/kʙ   0.000000e+00 [K]
    molecule-molecule VDW/kʙ    -1.759160e+05 [K]
    molecule-molecule Real/kʙ   -4.941134e+04 [K]
    Van der Waals (Tail)/kʙ     -5.594035e+03 [K]
    Ewald Fourier/kʙ             1.057532e+04 [K]
    Ewald self/kʙ               -4.345638e+06 [K]
    Ewald exclusion/kʙ           4.326033e+06 [K]
    intra VDW/kʙ                 0.000000e+00 [K]
    intra Coulombic/kʙ           0.000000e+00 [K]
    polarization/kʙ              0.000000e+00 [K]
    dU/dlambda VDW/kʙ            0.000000e+00 [K]
    dU/dlambda Real/kʙ           0.000000e+00 [K]
    dU/dlambda Ewald/kʙ          0.000000e+00 [K]


Initialization: Current cycle: 1500 out of 2000
===============================================================================

Box:      26.88945   0.00000   0.00000
           0.00000  26.88945   0.00000
           0.00000   0.00000  26.88945
Lengths:  26.88945  26.88945  26.88945
Angles:   90.00000  90.00000  90.00000
Rectangular boundary conditions

net charge:   0.00000000

component   0 (CO2) lambda:  0 occupancy:  0 (0.000000)
    net charge:   0.00000000 [e]

Amount of molecules per component :
-------------------------------------------------------------------------------
Component 0 (CO2)
    molecules:         2.250000e+02 molecules
    number density:    1.157276e-02 molec/A^3
    density:           8.455256e+02 kg/m^3

Total potential energy/kʙ       -2.636352e+05 [K]
-------------------------------------------------------------------------------
    external field VDW/kʙ        0.000000e+00 [K]
    external field Real/kʙ       0.000000e+00 [K]
    framework-molecule VDW/kʙ    0.000000e+00 [K]
    framework-molecule Real/kʙ   0.000000e+00 [K]
    molecule-molecule VDW/kʙ    -1.960421e+05 [K]
    molecule-molecule Real/kʙ   -5.213305e+04 [K]
    Van der Waals (Tail)/kʙ     -6.277645e+03 [K]
    Ewald Fourier/kʙ             1.123979e+04 [K]
    Ewald self/kʙ               -4.526707e+06 [K]
    Ewald exclusion/kʙ           4.506284e+06 [K]
    intra VDW/kʙ                 0.000000e+00 [K]
    intra Coulombic/kʙ           0.000000e+00 [K]
    polarization/kʙ              0.000000e+00 [K]
    dU/dlambda VDW/kʙ            0.000000e+00 [K]
    dU/dlambda Real/kʙ           0.000000e+00 [K]
    dU/dlambda Ewald/kʙ          0.000000e+00 [K]


Initialization: Current cycle: 1600 out of 2000
===============================================================================

Box:      26.91754   0.00000   0.00000
           0.00000  26.91754   0.00000
           0.00000   0.00000  26.91754
Lengths:  26.91754  26.91754  26.91754
Angles:   90.00000  90.00000  90.00000
Rectangular boundary conditions

net charge:   0.00000000

component   0 (CO2) lambda:  0 occupancy:  0 (0.000000)
    net charge:   0.00000000 [e]

Amount of molecules per component :
-------------------------------------------------------------------------------
Component 0 (CO2)
    molecules:         2.080000e+02 molecules
    number density:    1.066491e-02 molec/A^3
    density:           7.791963e+02 kg/m^3

Total potential energy/kʙ       -2.201887e+05 [K]
-------------------------------------------------------------------------------
    external field VDW/kʙ        0.000000e+00 [K]
    external field Real/kʙ       0.000000e+00 [K]
    framework-molecule VDW/kʙ    0.000000e+00 [K]
    framework-molecule Real/kʙ   0.000000e+00 [K]
    molecule-molecule VDW/kʙ    -1.614351e+05 [K]
    molecule-molecule Real/kʙ   -4.575111e+04 [K]
    Van der Waals (Tail)/kʙ     -5.348077e+03 [K]
    Ewald Fourier/kʙ             1.122480e+04 [K]
    Ewald self/kʙ               -4.184689e+06 [K]
    Ewald exclusion/kʙ           4.165810e+06 [K]
    intra VDW/kʙ                 0.000000e+00 [K]
    intra Coulombic/kʙ           0.000000e+00 [K]
    polarization/kʙ              0.000000e+00 [K]
    dU/dlambda VDW/kʙ            0.000000e+00 [K]
    dU/dlambda Real/kʙ           0.000000e+00 [K]
    dU/dlambda Ewald/kʙ          0.000000e+00 [K]


Initialization: Current cycle: 1700 out of 2000
===============================================================================

Box:      25.75007   0.00000   0.00000
           0.00000  25.75007   0.00000
           0.00000   0.00000  25.75007
Lengths:  25.75007  25.75007  25.75007
Angles:   90.00000  90.00000  90.00000
Rectangular boundary conditions

net charge:   0.00000000

component   0 (CO2) lambda:  0 occupancy:  0 (0.000000)
    net charge:   0.00000000 [e]

Amount of molecules per component :
-------------------------------------------------------------------------------
Component 0 (CO2)
    molecules:         2.020000e+02 molecules
    number density:    1.183086e-02 molec/A^3
    density:           8.643826e+02 kg/m^3

Total potential energy/kʙ       -2.483204e+05 [K]
-------------------------------------------------------------------------------
    external field VDW/kʙ        0.000000e+00 [K]
    external field Real/kʙ       0.000000e+00 [K]
    framework-molecule VDW/kʙ    0.000000e+00 [K]
    framework-molecule Real/kʙ   0.000000e+00 [K]
    molecule-molecule VDW/kʙ    -1.811788e+05 [K]
    molecule-molecule Real/kʙ   -5.339278e+04 [K]
    Van der Waals (Tail)/kʙ     -5.761623e+03 [K]
    Ewald Fourier/kʙ             1.034736e+04 [K]
    Ewald self/kʙ               -4.063977e+06 [K]
    Ewald exclusion/kʙ           4.045642e+06 [K]
    intra VDW/kʙ                 0.000000e+00 [K]
    intra Coulombic/kʙ           0.000000e+00 [K]
    polarization/kʙ              0.000000e+00 [K]
    dU/dlambda VDW/kʙ            0.000000e+00 [K]
    dU/dlambda Real/kʙ           0.000000e+00 [K]
    dU/dlambda Ewald/kʙ          0.000000e+00 [K]


Initialization: Current cycle: 1800 out of 2000
===============================================================================

Box:      25.32881   0.00000   0.00000
           0.00000  25.32881   0.00000
           0.00000   0.00000  25.32881
Lengths:  25.32881  25.32881  25.32881
Angles:   90.00000  90.00000  90.00000
Rectangular boundary conditions

net charge:   0.00000000

component   0 (CO2) lambda:  0 occupancy:  0 (0.000000)
    net charge:   0.00000000 [e]

Amount of molecules per component :
-------------------------------------------------------------------------------
Component 0 (CO2)
    molecules:         2.060000e+02 molecules
    number density:    1.267719e-02 molec/A^3
    density:           9.262171e+02 kg/m^3

Total potential energy/kʙ       -2.689667e+05 [K]
-------------------------------------------------------------------------------
    external field VDW/kʙ        0.000000e+00 [K]
    external field Real/kʙ       0.000000e+00 [K]
    framework-molecule VDW/kʙ    0.000000e+00 [K]
    framework-molecule Real/kʙ   0.000000e+00 [K]
    molecule-molecule VDW/kʙ    -1.993002e+05 [K]
    molecule-molecule Real/kʙ   -5.411541e+04 [K]
    Van der Waals (Tail)/kʙ     -6.296040e+03 [K]
    Ewald Fourier/kʙ             9.442614e+03 [K]
    Ewald self/kʙ               -4.144451e+06 [K]
    Ewald exclusion/kʙ           4.125754e+06 [K]
    intra VDW/kʙ                 0.000000e+00 [K]
    intra Coulombic/kʙ           0.000000e+00 [K]
    polarization/kʙ              0.000000e+00 [K]
    dU/dlambda VDW/kʙ            0.000000e+00 [K]
    dU/dlambda Real/kʙ           0.000000e+00 [K]
    dU/dlambda Ewald/kʙ          0.000000e+00 [K]


Initialization: Current cycle: 1900 out of 2000
===============================================================================

Box:      25.16731   0.00000   0.00000
           0.00000  25.16731   0.00000
           0.00000   0.00000  25.16731
Lengths:  25.16731  25.16731  25.16731
Angles:   90.00000  90.00000  90.00000
Rectangular boundary conditions

net charge:   0.00000000

component   0 (CO2) lambda:  0 occupancy:  0 (0.000000)
    net charge:   0.00000000 [e]

Amount of molecules per component :
-------------------------------------------------------------------------------
Component 0 (CO2)
    molecules:         1.860000e+02 molecules
    number density:    1.166817e-02 molec/A^3
    density:           8.524965e+02 kg/m^3

Total potential energy/kʙ       -2.214840e+05 [K]
-------------------------------------------------------------------------------
    external field VDW/kʙ        0.000000e+00 [K]
    external field Real/kʙ       0.000000e+00 [K]
    framework-molecule VDW/kʙ    0.000000e+00 [K]
    framework-molecule Real/kʙ   0.000000e+00 [K]
    molecule-molecule VDW/kʙ    -1.606891e+05 [K]
    molecule-molecule Real/kʙ   -4.742824e+04 [K]
    Van der Waals (Tail)/kʙ     -5.232304e+03 [K]
    Ewald Fourier/kʙ             8.747979e+03 [K]
    Ewald self/kʙ               -3.742078e+06 [K]
    Ewald exclusion/kʙ           3.725195e+06 [K]
    intra VDW/kʙ                 0.000000e+00 [K]
    intra Coulombic/kʙ           0.000000e+00 [K]
    polarization/kʙ              0.000000e+00 [K]
    dU/dlambda VDW/kʙ            0.000000e+00 [K]
    dU/dlambda Real/kʙ           0.000000e+00 [K]
    dU/dlambda Ewald/kʙ          0.000000e+00 [K]


Current cycle: 0 out of 6000
===============================================================================

Box:      25.50387   0.00000   0.00000  Average:  25.50387   0.00000   0.00000
           0.00000  25.50387   0.00000             0.00000  25.50387   0.00000
           0.00000   0.00000  25.50387             0.00000   0.00000  25.50387
Lengths:  25.50387  25.50387  25.50387  Average:  25.50387  25.50387  25.50387
Angles:   90.00000  90.00000  90.00000  Average:  90.00000  90.00000  90.00000
Rectangular boundary conditions

net charge:   0.00000000

component 0 (CO2) lambda:  0 occupancy:  0 (0.000000)
    net charge:   0.00000000 [e]

Amount of molecules per component :
-------------------------------------------------------------------------------
Component 0 (CO2)
    molecules:      1.970000e+02 molecules  (1.970000e+02 +/- 0.000000e+00)
    number density: 1.187539e-02 molec./A^3 (1.187539e-02 +/- 0.000000e+00)
    density:        8.676363e+02 kg/m^3     (8.676363e+02 +/- 0.000000e+00)

Average pressure tensor: 
-------------------------------------------------------------------------------
 4.5908e+02  0.0000e+00  0.0000e+00 +/- 0.0000e+00 0.0000e+00 0.0000e+00 [bar]
 0.0000e+00  4.5908e+02  0.0000e+00 +/- 0.0000e+00 0.0000e+00 0.0000e+00 [bar]
 0.0000e+00  0.0000e+00  4.5908e+02 +/- 0.0000e+00 0.0000e+00 0.0000e+00 [bar]
Ideal-gas pressure:   4.590813e+02 +/ 0.000000e+00 [bar]
Excess pressure:      0.000000e+00 +/ 0.000000e+00 [bar]
Pressure:             4.590813e+02 +/ 0.000000e+00 [bar]

Total potential energy/kʙ  -2.326128e+05 (-2.326128e+05 +/- 0.000000e+00) [K]
-------------------------------------------------------------------------------
ExternalField-molecule
    Van der Waals/kʙ        0.000000e+00 ( 0.000000e+00 +/- 0.000000e+00) [K]
Framework-molecule
    Van der Waals/kʙ        0.000000e+00 ( 0.000000e+00 +/- 0.000000e+00) [K]
    Van der Waals (Tail)/kʙ 0.000000e+00 ( 0.000000e+00 +/- 0.000000e+00) [K]
    Coulombic Real/kʙ       0.000000e+00 ( 0.000000e+00 +/- 0.000000e+00) [K]
    Coulombic Fourier/kʙ    0.000000e+00 ( 0.000000e+00 +/- 0.000000e+00) [K]
Molecule-molecule
    Van der Waals/kʙ       -1.737271e+05 (-1.737271e+05 +/- 0.000000e+00) [K]
    Van der Waals (Tail)/kʙ-5.640160e+03 (-5.640160e+03 +/- 0.000000e+00) [K]
    Coulombic Real/kʙ      -4.514762e+04 (-4.514762e+04 +/- 0.000000e+00) [K]
    Coulombic Fourier/kʙ   -8.097960e+03 (-8.097960e+03 +/- 0.000000e+00) [K]
    Molecule Intra/kʙ       0.000000e+00 ( 0.000000e+00 +/- 0.000000e+00) [K]

Current cycle: 100 out of 6000
===============================================================================

Box:      25.47216   0.00000   0.00000  Average:  25.54268   0.00000   0.00000
           0.00000  25.47216   0.00000             0.00000  25.54268   0.00000
           0.00000   0.00000  25.47216             0.00000   0.00000  25.54268
Lengths:  25.47216  25.47216  25.47216  Average:  25.54268  25.54268  25.54268
Angles:   90.00000  90.00000  90.00000  Average:  90.00000  90.00000  90.00000
Rectangular boundary conditions

net charge:   0.00000000

component 0 (CO2) lambda:  0 occupancy:  0 (0.000000)
    net charge:   0.00000000 [e]

Amount of molecules per component :
-------------------------------------------------------------------------------
Component 0 (CO2)
    molecules:      2.030000e+02 molecules  (2.030198e+02 +/- 0.000000e+00)
    number density: 1.228284e-02 molec./A^3 (1.218807e-02 +/- 0.000000e+00)
    density:        8.974050e+02 kg/m^3     (8.904811e+02 +/- 0.000000e+00)

Average pressure tensor: 
-------------------------------------------------------------------------------
-3.4901e+01  1.6806e+02 -6.6508e+01 +/- 0.0000e+00 0.0000e+00 0.0000e+00 [bar]
 1.6806e+02 -6.7840e+01 -3.9402e+01 +/- 0.0000e+00 0.0000e+00 0.0000e+00 [bar]
-6.6508e+01 -3.9402e+01 -7.9233e+01 +/- 0.0000e+00 0.0000e+00 0.0000e+00 [bar]
Ideal-gas pressure:   4.711689e+02 +/ 0.000000e+00 [bar]
Excess pressure:     -5.318270e+02 +/ 0.000000e+00 [bar]
Pressure:            -6.065815e+01 +/ 0.000000e+00 [bar]

Total potential energy/kʙ  -2.490489e+05 (-2.517320e+05 +/- 0.000000e+00) [K]
-------------------------------------------------------------------------------
ExternalField-molecule
    Van der Waals/kʙ        0.000000e+00 ( 0.000000e+00 +/- 0.000000e+00) [K]
Framework-molecule
    Van der Waals/kʙ        0.000000e+00 ( 0.000000e+00 +/- 0.000000e+00) [K]
    Van der Waals (Tail)/kʙ 0.000000e+00 ( 0.000000e+00 +/- 0.000000e+00) [K]
    Coulombic Real/kʙ       0.000000e+00 ( 0.000000e+00 +/- 0.000000e+00) [K]
    Coulombic Fourier/kʙ    0.000000e+00 ( 0.000000e+00 +/- 0.000000e+00) [K]
Molecule-molecule
    Van der Waals/kʙ       -1.897541e+05 (-1.851979e+05 +/- 0.000000e+00) [K]
    Van der Waals (Tail)/kʙ-6.011350e+03 (-5.961306e+03 +/- 0.000000e+00) [K]
    Coulombic Real/kʙ      -4.495433e+04 (-5.143818e+04 +/- 0.000000e+00) [K]
    Coulombic Fourier/kʙ   -8.329109e+03 (-9.134641e+03 +/- 0.000000e+00) [K]
    Molecule Intra/kʙ       0.000000e+00 ( 0.000000e+00 +/- 0.000000e+00) [K]

Current cycle: 200 out of 6000
===============================================================================

Box:      25.88604   0.00000   0.00000  Average:  25.57681   0.00000   0.00000
           0.00000  25.88604   0.00000             0.00000  25.57681   0.00000
           0.00000   0.00000  25.88604             0.00000   0.00000  25.57681
Lengths:  25.88604  25.88604  25.88604  Average:  25.57681  25.57681  25.57681
Angles:   90.00000  90.00000  90.00000  Average:  90.00000  90.00000  90.00000
Rectangular boundary conditions

net charge:   0.00000000

component 0 (CO2) lambda:  0 occupancy:  0 (0.000000)
    net charge:   0.00000000 [e]

Amount of molecules per component :
-------------------------------------------------------------------------------
Component 0 (CO2)
    molecules:      2.150000e+02 molecules  (2.023085e+02 +/- 0.000000e+00)
    number density: 1.239486e-02 molec./A^3 (1.209420e-02 +/- 0.000000e+00)
    density:        9.055900e+02 kg/m^3     (8.836231e+02 +/- 0.000000e+00)

Average pressure tensor: 
-------------------------------------------------------------------------------
-1.6224e+01  6.8288e+01 -5.5454e+01 +/- 0.0000e+00 0.0000e+00 0.0000e+00 [bar]
 6.8288e+01 -5.0810e+01 -3.7341e+00 +/- 0.0000e+00 0.0000e+00 0.0000e+00 [bar]
-5.5454e+01 -3.7341e+00 -7.9011e+01 +/- 0.0000e+00 0.0000e+00 0.0000e+00 [bar]
Ideal-gas pressure:   4.675402e+02 +/ 0.000000e+00 [bar]
Excess pressure:     -5.162218e+02 +/ 0.000000e+00 [bar]
Pressure:            -4.868159e+01 +/ 0.000000e+00 [bar]

Total potential energy/kʙ  -2.691335e+05 (-2.505081e+05 +/- 0.000000e+00) [K]
-------------------------------------------------------------------------------
ExternalField-molecule
    Van der Waals/kʙ        0.000000e+00 ( 0.000000e+00 +/- 0.000000e+00) [K]
Framework-molecule
    Van der Waals/kʙ        0.000000e+00 ( 0.000000e+00 +/- 0.000000e+00) [K]
    Van der Waals (Tail)/kʙ 0.000000e+00 ( 0.000000e+00 +/- 0.000000e+00) [K]
    Coulombic Real/kʙ       0.000000e+00 ( 0.000000e+00 +/- 0.000000e+00) [K]
    Coulombic Fourier/kʙ    0.000000e+00 ( 0.000000e+00 +/- 0.000000e+00) [K]
Molecule-molecule
    Van der Waals/kʙ       -2.018410e+05 (-1.847402e+05 +/- 0.000000e+00) [K]
    Van der Waals (Tail)/kʙ-6.424769e+03 (-5.933942e+03 +/- 0.000000e+00) [K]
    Coulombic Real/kʙ      -5.206970e+04 (-5.097895e+04 +/- 0.000000e+00) [K]
    Coulombic Fourier/kʙ   -8.798058e+03 (-8.854978e+03 +/- 0.000000e+00) [K]
    Molecule Intra/kʙ       0.000000e+00 ( 0.000000e+00 +/- 0.000000e+00) [K]

Current cycle: 300 out of 6000
===============================================================================

Box:      25.58299   0.00000   0.00000  Average:  25.65063   0.00000   0.00000
           0.00000  25.58299   0.00000             0.00000  25.65063   0.00000
           0.00000   0.00000  25.58299             0.00000   0.00000  25.65063
Lengths:  25.58299  25.58299  25.58299  Average:  25.65063  25.65063  25.65063
Angles:   90.00000  90.00000  90.00000  Average:  90.00000  90.00000  90.00000
Rectangular boundary conditions

net charge:   0.00000000

component 0 (CO2) lambda:  0 occupancy:  0 (0.000000)
    net charge:   0.00000000 [e]

Amount of molecules per component :
-------------------------------------------------------------------------------
Component 0 (CO2)
    molecules:      1.990000e+02 molecules  (2.013023e+02 +/- 0.000000e+00)
    number density: 1.188500e-02 molec./A^3 (1.193216e-02 +/- 0.000000e+00)
    density:        8.683385e+02 kg/m^3     (8.717839e+02 +/- 0.000000e+00)

Average pressure tensor: 
-------------------------------------------------------------------------------
-7.0519e+01  5.6552e+01 -1.4425e+01 +/- 0.0000e+00 0.0000e+00 0.0000e+00 [bar]
 5.6552e+01  4.2819e-02 -1.0673e+00 +/- 0.0000e+00 0.0000e+00 0.0000e+00 [bar]
-1.4425e+01 -1.0673e+00 -5.5408e+01 +/- 0.0000e+00 0.0000e+00 0.0000e+00 [bar]
Ideal-gas pressure:   4.612759e+02 +/ 0.000000e+00 [bar]
Excess pressure:     -5.032370e+02 +/ 0.000000e+00 [bar]
Pressure:            -4.196116e+01 +/ 0.000000e+00 [bar]

Total potential energy/kʙ  -2.367686e+05 (-2.448592e+05 +/- 0.000000e+00) [K]
-------------------------------------------------------------------------------
ExternalField-molecule
    Van der Waals/kʙ        0.000000e+00 ( 0.000000e+00 +/- 0.000000e+00) [K]
Framework-molecule
    Van der Waals/kʙ        0.000000e+00 ( 0.000000e+00 +/- 0.000000e+00) [K]
    Van der Waals (Tail)/kʙ 0.000000e+00 ( 0.000000e+00 +/- 0.000000e+00) [K]
    Coulombic Real/kʙ       0.000000e+00 ( 0.000000e+00 +/- 0.000000e+00) [K]
    Coulombic Fourier/kʙ    0.000000e+00 ( 0.000000e+00 +/- 0.000000e+00) [K]
Molecule-molecule
    Van der Waals/kʙ       -1.748038e+05 (-1.814235e+05 +/- 0.000000e+00) [K]
    Van der Waals (Tail)/kʙ-5.702031e+03 (-5.838688e+03 +/- 0.000000e+00) [K]
    Coulombic Real/kʙ      -4.791005e+04 (-4.911248e+04 +/- 0.000000e+00) [K]
    Coulombic Fourier/kʙ   -8.352799e+03 (-8.484541e+03 +/- 0.000000e+00) [K]
    Molecule Intra/kʙ       0.000000e+00 ( 0.000000e+00 +/- 0.000000e+00) [K]

Current cycle: 400 out of 6000
===============================================================================

Box:      25.57291   0.00000   0.00000  Average:  25.65566   0.00000   0.00000
           0.00000  25.57291   0.00000             0.00000  25.65566   0.00000
           0.00000   0.00000  25.57291             0.00000   0.00000  25.65566
Lengths:  25.57291  25.57291  25.57291  Average:  25.65566  25.65566  25.65566
Angles:   90.00000  90.00000  90.00000  Average:  90.00000  90.00000  90.00000
Rectangular boundary conditions

net charge:   0.00000000

component 0 (CO2) lambda:  0 occupancy:  0 (0.000000)
    net charge:   0.00000000 [e]

Amount of molecules per component :
-------------------------------------------------------------------------------
Component 0 (CO2)
    molecules:      2.000000e+02 molecules  (2.010299e+02 +/- 0.000000e+00)
    number density: 1.195886e-02 molec./A^3 (1.190822e-02 +/- 0.000000e+00)
    density:        8.737347e+02 kg/m^3     (8.700352e+02 +/- 0.000000e+00)

Average pressure tensor: 
-------------------------------------------------------------------------------
-3.4811e+01  5.6602e+01 -3.8621e+01 +/- 0.0000e+00 0.0000e+00 0.0000e+00 [bar]
 5.6602e+01 -3.2023e+01 -1.3402e+01 +/- 0.0000e+00 0.0000e+00 0.0000e+00 [bar]
-3.8621e+01 -1.3402e+01 -4.4478e+01 +/- 0.0000e+00 0.0000e+00 0.0000e+00 [bar]
Ideal-gas pressure:   4.603506e+02 +/ 0.000000e+00 [bar]
Excess pressure:     -4.974546e+02 +/ 0.000000e+00 [bar]
Pressure:            -3.710402e+01 +/ 0.000000e+00 [bar]

Total potential energy/kʙ  -2.458703e+05 (-2.448315e+05 +/- 0.000000e+00) [K]
-------------------------------------------------------------------------------
ExternalField-molecule
    Van der Waals/kʙ        0.000000e+00 ( 0.000000e+00 +/- 0.000000e+00) [K]
Framework-molecule
    Van der Waals/kʙ        0.000000e+00 ( 0.000000e+00 +/- 0.000000e+00) [K]
    Van der Waals (Tail)/kʙ 0.000000e+00 ( 0.000000e+00 +/- 0.000000e+00) [K]
    Coulombic Real/kʙ       0.000000e+00 ( 0.000000e+00 +/- 0.000000e+00) [K]
    Coulombic Fourier/kʙ    0.000000e+00 ( 0.000000e+00 +/- 0.000000e+00) [K]
Molecule-molecule
    Van der Waals/kʙ       -1.774758e+05 (-1.807800e+05 +/- 0.000000e+00) [K]
    Van der Waals (Tail)/kʙ-5.766298e+03 (-5.830125e+03 +/- 0.000000e+00) [K]
    Coulombic Real/kʙ      -5.402697e+04 (-4.971315e+04 +/- 0.000000e+00) [K]
    Coulombic Fourier/kʙ   -8.601225e+03 (-8.508188e+03 +/- 0.000000e+00) [K]
    Molecule Intra/kʙ       0.000000e+00 ( 0.000000e+00 +/- 0.000000e+00) [K]

Current cycle: 500 out of 6000
===============================================================================

Box:      25.74847   0.00000   0.00000  Average:  25.65682   0.00000   0.00000
           0.00000  25.74847   0.00000             0.00000  25.65682   0.00000
           0.00000   0.00000  25.74847             0.00000   0.00000  25.65682
Lengths:  25.74847  25.74847  25.74847  Average:  25.65682  25.65682  25.65682
Angles:   90.00000  90.00000  90.00000  Average:  90.00000  90.00000  90.00000
Rectangular boundary conditions

net charge:   0.00000000

component 0 (CO2) lambda:  0 occupancy:  0 (0.000000)
    net charge:   0.00000000 [e]

Amount of molecules per component :
-------------------------------------------------------------------------------
Component 0 (CO2)
    molecules:      2.080000e+02 molecules  (2.008543e+02 +/- 0.000000e+00)
    number density: 1.218454e-02 molec./A^3 (1.189585e-02 +/- 0.000000e+00)
    density:        8.902236e+02 kg/m^3     (8.691312e+02 +/- 0.000000e+00)

Average pressure tensor: 
-------------------------------------------------------------------------------
-3.8126e+01  3.3280e+01 -4.1770e+01 +/- 0.0000e+00 0.0000e+00 0.0000e+00 [bar]
 3.3280e+01 -1.0171e+01  1.5863e+01 +/- 0.0000e+00 0.0000e+00 0.0000e+00 [bar]
-4.1770e+01  1.5863e+01 -1.3684e+01 +/- 0.0000e+00 0.0000e+00 0.0000e+00 [bar]
Ideal-gas pressure:   4.598723e+02 +/ 0.000000e+00 [bar]
Excess pressure:     -4.805326e+02 +/ 0.000000e+00 [bar]
Pressure:            -2.066036e+01 +/ 0.000000e+00 [bar]

Total potential energy/kʙ  -2.547542e+05 (-2.446221e+05 +/- 0.000000e+00) [K]
-------------------------------------------------------------------------------
ExternalField-molecule
    Van der Waals/kʙ        0.000000e+00 ( 0.000000e+00 +/- 0.000000e+00) [K]
Framework-molecule
    Van der Waals/kʙ        0.000000e+00 ( 0.000000e+00 +/- 0.000000e+00) [K]
    Van der Waals (Tail)/kʙ 0.000000e+00 ( 0.000000e+00 +/- 0.000000e+00) [K]
    Coulombic Real/kʙ       0.000000e+00 ( 0.000000e+00 +/- 0.000000e+00) [K]
    Coulombic Fourier/kʙ    0.000000e+00 ( 0.000000e+00 +/- 0.000000e+00) [K]
Molecule-molecule
    Van der Waals/kʙ       -1.903500e+05 (-1.806946e+05 +/- 0.000000e+00) [K]
    Van der Waals (Tail)/kʙ-6.110122e+03 (-5.829768e+03 +/- 0.000000e+00) [K]
    Coulombic Real/kʙ      -4.996396e+04 (-4.956155e+04 +/- 0.000000e+00) [K]
    Coulombic Fourier/kʙ   -8.330149e+03 (-8.536101e+03 +/- 0.000000e+00) [K]
    Molecule Intra/kʙ       0.000000e+00 ( 0.000000e+00 +/- 0.000000e+00) [K]

Current cycle: 600 out of 6000
===============================================================================

Box:      25.69747   0.00000   0.00000  Average:  25.69968   0.00000   0.00000
           0.00000  25.69747   0.00000             0.00000  25.69968   0.00000
           0.00000   0.00000  25.69747             0.00000   0.00000  25.69968
Lengths:  25.69747  25.69747  25.69747  Average:  25.69968  25.69968  25.69968
Angles:   90.00000  90.00000  90.00000  Average:  90.00000  90.00000  90.00000
Rectangular boundary conditions

net charge:   0.00000000

component 0 (CO2) lambda:  0 occupancy:  0 (0.000000)
    net charge:   0.00000000 [e]

Amount of molecules per component :
-------------------------------------------------------------------------------
Component 0 (CO2)
    molecules:      1.920000e+02 molecules  (2.017903e+02 +/- 0.000000e+00)
    number density: 1.131436e-02 molec./A^3 (1.189042e-02 +/- 0.000000e+00)
    density:        8.266464e+02 kg/m^3     (8.687342e+02 +/- 0.000000e+00)

Average pressure tensor: 
-------------------------------------------------------------------------------
-3.4253e+01  4.9047e+01 -5.6084e+01 +/- 0.0000e+00 0.0000e+00 0.0000e+00 [bar]
 4.9047e+01 -1.8917e+01 -3.1836e-01 +/- 0.0000e+00 0.0000e+00 0.0000e+00 [bar]
-5.6084e+01 -3.1836e-01 -3.7235e+00 +/- 0.0000e+00 0.0000e+00 0.0000e+00 [bar]
Ideal-gas pressure:   4.596622e+02 +/ 0.000000e+00 [bar]
Excess pressure:     -4.786267e+02 +/ 0.000000e+00 [bar]
Pressure:            -1.896446e+01 +/ 0.000000e+00 [bar]

Total potential energy/kʙ  -2.223387e+05 (-2.448479e+05 +/- 0.000000e+00) [K]
-------------------------------------------------------------------------------
ExternalField-molecule
    Van der Waals/kʙ        0.000000e+00 ( 0.000000e+00 +/- 0.000000e+00) [K]
Framework-molecule
    Van der Waals/kʙ        0.000000e+00 ( 0.000000e+00 +/- 0.000000e+00) [K]
    Van der Waals (Tail)/kʙ 0.000000e+00 ( 0.000000e+00 +/- 0.000000e+00) [K]
    Coulombic Real/kʙ       0.000000e+00 ( 0.000000e+00 +/- 0.000000e+00) [K]
    Coulombic Fourier/kʙ    0.000000e+00 ( 0.000000e+00 +/- 0.000000e+00) [K]
Molecule-molecule
    Van der Waals/kʙ       -1.650580e+05 (-1.810498e+05 +/- 0.000000e+00) [K]
    Van der Waals (Tail)/kʙ-5.237312e+03 (-5.832043e+03 +/- 0.000000e+00) [K]
    Coulombic Real/kʙ      -4.572359e+04 (-4.943605e+04 +/- 0.000000e+00) [K]
    Coulombic Fourier/kʙ   -6.319760e+03 (-8.529944e+03 +/- 0.000000e+00) [K]
    Molecule Intra/kʙ       0.000000e+00 ( 0.000000e+00 +/- 0.000000e+00) [K]

Current cycle: 700 out of 6000
===============================================================================

Box:      26.64557   0.00000   0.00000  Average:  25.76542   0.00000   0.00000
           0.00000  26.64557   0.00000             0.00000  25.76542   0.00000
           0.00000   0.00000  26.64557             0.00000   0.00000  25.76542
Lengths:  26.64557  26.64557  26.64557  Average:  25.76542  25.76542  25.76542
Angles:   90.00000  90.00000  90.00000  Average:  90.00000  90.00000  90.00000
Rectangular boundary conditions

net charge:   0.00000000

component 0 (CO2) lambda:  0 occupancy:  0 (0.000000)
    net charge:   0.00000000 [e]

Amount of molecules per component :
-------------------------------------------------------------------------------
Component 0 (CO2)
    molecules:      2.130000e+02 molecules  (2.026320e+02 +/- 0.000000e+00)
    number density: 1.125912e-02 molec./A^3 (1.184870e-02 +/- 0.000000e+00)
    density:        8.226108e+02 kg/m^3     (8.656866e+02 +/- 0.000000e+00)

Average pressure tensor: 
-------------------------------------------------------------------------------
-4.0499e+01  4.9796e+01 -4.6443e+01 +/- 0.0000e+00 0.0000e+00 0.0000e+00 [bar]
 4.9796e+01 -4.9967e+00  3.6027e-01 +/- 0.0000e+00 0.0000e+00 0.0000e+00 [bar]
-4.6443e+01  3.6027e-01 -9.3282e+00 +/- 0.0000e+00 0.0000e+00 0.0000e+00 [bar]
Ideal-gas pressure:   4.580497e+02 +/ 0.000000e+00 [bar]
Excess pressure:     -4.763242e+02 +/ 0.000000e+00 [bar]
Pressure:            -1.827450e+01 +/ 0.000000e+00 [bar]

Total potential energy/kʙ  -2.461756e+05 (-2.448279e+05 +/- 0.000000e+00) [K]
-------------------------------------------------------------------------------
ExternalField-molecule
    Van der Waals/kʙ        0.000000e+00 ( 0.000000e+00 +/- 0.000000e+00) [K]
Framework-molecule
    Van der Waals/kʙ        0.000000e+00 ( 0.000000e+00 +/- 0.000000e+00) [K]
    Van der Waals (Tail)/kʙ 0.000000e+00 ( 0.000000e+00 +/- 0.000000e+00) [K]
    Coulombic Real/kʙ       0.000000e+00 ( 0.000000e+00 +/- 0.000000e+00) [K]
    Coulombic Fourier/kʙ    0.000000e+00 ( 0.000000e+00 +/- 0.000000e+00) [K]
Molecule-molecule
    Van der Waals/kʙ       -1.818089e+05 (-1.809975e+05 +/- 0.000000e+00) [K]
    Van der Waals (Tail)/kʙ-5.781779e+03 (-5.824871e+03 +/- 0.000000e+00) [K]
    Coulombic Real/kʙ      -5.056053e+04 (-4.948061e+04 +/- 0.000000e+00) [K]
    Coulombic Fourier/kʙ   -8.024418e+03 (-8.524961e+03 +/- 0.000000e+00) [K]
    Molecule Intra/kʙ       0.000000e+00 ( 0.000000e+00 +/- 0.000000e+00) [K]

Current cycle: 800 out of 6000
===============================================================================

Box:      26.33967   0.00000   0.00000  Average:  25.84343   0.00000   0.00000
           0.00000  26.33967   0.00000             0.00000  25.84343   0.00000
           0.00000   0.00000  26.33967             0.00000   0.00000  25.84343
Lengths:  26.33967  26.33967  26.33967  Average:  25.84343  25.84343  25.84343
Angles:   90.00000  90.00000  90.00000  Average:  90.00000  90.00000  90.00000
Rectangular boundary conditions

net charge:   0.00000000

component 0 (CO2) lambda:  0 occupancy:  0 (0.000000)
    net charge:   0.00000000 [e]

Amount of molecules per component :
-------------------------------------------------------------------------------
Component 0 (CO2)
    molecules:      2.170000e+02 molecules  (2.038302e+02 +/- 0.000000e+00)
    number density: 1.187487e-02 molec./A^3 (1.181146e-02 +/- 0.000000e+00)
    density:        8.675985e+02 kg/m^3     (8.629652e+02 +/- 0.000000e+00)

Average pressure tensor: 
-------------------------------------------------------------------------------
-1.7648e+01  5.3437e+01 -3.7528e+01 +/- 0.0000e+00 0.0000e+00 0.0000e+00 [bar]
 5.3437e+01  2.7658e-01  2.4531e+00 +/- 0.0000e+00 0.0000e+00 0.0000e+00 [bar]
-3.7528e+01  2.4531e+00 -2.4408e+01 +/- 0.0000e+00 0.0000e+00 0.0000e+00 [bar]
Ideal-gas pressure:   4.566098e+02 +/ 0.000000e+00 [bar]
Excess pressure:     -4.705364e+02 +/ 0.000000e+00 [bar]
Pressure:            -1.392662e+01 +/ 0.000000e+00 [bar]

Total potential energy/kʙ  -2.629888e+05 (-2.457955e+05 +/- 0.000000e+00) [K]
-------------------------------------------------------------------------------
ExternalField-molecule
    Van der Waals/kʙ        0.000000e+00 ( 0.000000e+00 +/- 0.000000e+00) [K]
Framework-molecule
    Van der Waals/kʙ        0.000000e+00 ( 0.000000e+00 +/- 0.000000e+00) [K]
    Van der Waals (Tail)/kʙ 0.000000e+00 ( 0.000000e+00 +/- 0.000000e+00) [K]
    Coulombic Real/kʙ       0.000000e+00 ( 0.000000e+00 +/- 0.000000e+00) [K]
    Coulombic Fourier/kʙ    0.000000e+00 ( 0.000000e+00 +/- 0.000000e+00) [K]
Molecule-molecule
    Van der Waals/kʙ       -1.926749e+05 (-1.818638e+05 +/- 0.000000e+00) [K]
    Van der Waals (Tail)/kʙ-6.212494e+03 (-5.849534e+03 +/- 0.000000e+00) [K]
    Coulombic Real/kʙ      -5.403785e+04 (-4.950174e+04 +/- 0.000000e+00) [K]
    Coulombic Fourier/kʙ   -1.006363e+04 (-8.580457e+03 +/- 0.000000e+00) [K]
    Molecule Intra/kʙ       0.000000e+00 ( 0.000000e+00 +/- 0.000000e+00) [K]

Current cycle: 900 out of 6000
===============================================================================

Box:      26.38905   0.00000   0.00000  Average:  25.89168   0.00000   0.00000
           0.00000  26.38905   0.00000             0.00000  25.89168   0.00000
           0.00000   0.00000  26.38905             0.00000   0.00000  25.89168
Lengths:  26.38905  26.38905  26.38905  Average:  25.89168  25.89168  25.89168
Angles:   90.00000  90.00000  90.00000  Average:  90.00000  90.00000  90.00000
Rectangular boundary conditions

net charge:   0.00000000

component 0 (CO2) lambda:  0 occupancy:  0 (0.000000)
    net charge:   0.00000000 [e]

Amount of molecules per component :
-------------------------------------------------------------------------------
Component 0 (CO2)
    molecules:      1.940000e+02 molecules  (2.044462e+02 +/- 0.000000e+00)
    number density: 1.055676e-02 molec./A^3 (1.178118e-02 +/- 0.000000e+00)
    density:        7.712949e+02 kg/m^3     (8.607529e+02 +/- 0.000000e+00)

Average pressure tensor: 
-------------------------------------------------------------------------------
 6.9183e+00  5.1591e+01 -4.1254e+01 +/- 0.0000e+00 0.0000e+00 0.0000e+00 [bar]
 5.1591e+01  2.1902e+00  5.0833e+00 +/- 0.0000e+00 0.0000e+00 0.0000e+00 [bar]
-4.1254e+01  5.0833e+00 -3.0282e+01 +/- 0.0000e+00 0.0000e+00 0.0000e+00 [bar]
Ideal-gas pressure:   4.554392e+02 +/ 0.000000e+00 [bar]
Excess pressure:     -4.624969e+02 +/ 0.000000e+00 [bar]
Pressure:            -7.057687e+00 +/ 0.000000e+00 [bar]

Total potential energy/kʙ  -2.109176e+05 (-2.456440e+05 +/- 0.000000e+00) [K]
-------------------------------------------------------------------------------
ExternalField-molecule
    Van der Waals/kʙ        0.000000e+00 ( 0.000000e+00 +/- 0.000000e+00) [K]
Framework-molecule
    Van der Waals/kʙ        0.000000e+00 ( 0.000000e+00 +/- 0.000000e+00) [K]
    Van der Waals (Tail)/kʙ 0.000000e+00 ( 0.000000e+00 +/- 0.000000e+00) [K]
    Coulombic Real/kʙ       0.000000e+00 ( 0.000000e+00 +/- 0.000000e+00) [K]
    Coulombic Fourier/kʙ    0.000000e+00 ( 0.000000e+00 +/- 0.000000e+00) [K]
Molecule-molecule
    Van der Waals/kʙ       -1.533181e+05 (-1.816960e+05 +/- 0.000000e+00) [K]
    Van der Waals (Tail)/kʙ-4.937529e+03 (-5.842761e+03 +/- 0.000000e+00) [K]
    Coulombic Real/kʙ      -4.511859e+04 (-4.949755e+04 +/- 0.000000e+00) [K]
    Coulombic Fourier/kʙ   -7.543387e+03 (-8.607705e+03 +/- 0.000000e+00) [K]
    Molecule Intra/kʙ       0.000000e+00 ( 0.000000e+00 +/- 0.000000e+00) [K]

Current cycle: 1000 out of 6000
===============================================================================

Box:      26.41110   0.00000   0.00000  Average:  25.95797   0.00000   0.00000
           0.00000  26.41110   0.00000             0.00000  25.95797   0.00000
           0.00000   0.00000  26.41110             0.00000   0.00000  25.95797
Lengths:  26.41110  26.41110  26.41110  Average:  25.95797  25.95797  25.95797
Angles:   90.00000  90.00000  90.00000  Average:  90.00000  90.00000  90.00000
Rectangular boundary conditions

net charge:   0.00000000

component 0 (CO2) lambda:  0 occupancy:  0 (0.000000)
    net charge:   0.00000000 [e]

Amount of molecules per component :
-------------------------------------------------------------------------------
Component 0 (CO2)
    molecules:      2.160000e+02 molecules  (2.048871e+02 +/- 0.000000e+00)
    number density: 1.172450e-02 molec./A^3 (1.171857e-02 +/- 0.000000e+00)
    density:        8.566124e+02 kg/m^3     (8.561785e+02 +/- 0.000000e+00)

Average pressure tensor: 
-------------------------------------------------------------------------------
-1.1268e+00  4.4167e+01 -3.5962e+01 +/- 0.0000e+00 0.0000e+00 0.0000e+00 [bar]
 4.4167e+01 -1.3209e+01  5.1099e+00 +/- 0.0000e+00 0.0000e+00 0.0000e+00 [bar]
-3.5962e+01  5.1099e+00 -2.7070e+01 +/- 0.0000e+00 0.0000e+00 0.0000e+00 [bar]
Ideal-gas pressure:   4.530188e+02 +/ 0.000000e+00 [bar]
Excess pressure:     -4.668209e+02 +/ 0.000000e+00 [bar]
Pressure:            -1.380210e+01 +/ 0.000000e+00 [bar]

Total potential energy/kʙ  -2.490705e+05 (-2.449870e+05 +/- 0.000000e+00) [K]
-------------------------------------------------------------------------------
ExternalField-molecule
    Van der Waals/kʙ        0.000000e+00 ( 0.000000e+00 +/- 0.000000e+00) [K]
Framework-molecule
    Van der Waals/kʙ        0.000000e+00 ( 0.000000e+00 +/- 0.000000e+00) [K]
    Van der Waals (Tail)/kʙ 0.000000e+00 ( 0.000000e+00 +/- 0.000000e+00) [K]
    Coulombic Real/kʙ       0.000000e+00 ( 0.000000e+00 +/- 0.000000e+00) [K]
    Coulombic Fourier/kʙ    0.000000e+00 ( 0.000000e+00 +/- 0.000000e+00) [K]
Molecule-molecule
    Van der Waals/kʙ       -1.822085e+05 (-1.813069e+05 +/- 0.000000e+00) [K]
    Van der Waals (Tail)/kʙ-6.105561e+03 (-5.826099e+03 +/- 0.000000e+00) [K]
    Coulombic Real/kʙ      -5.265085e+04 (-4.929376e+04 +/- 0.000000e+00) [K]
    Coulombic Fourier/kʙ   -8.105598e+03 (-8.560169e+03 +/- 0.000000e+00) [K]
    Molecule Intra/kʙ       0.000000e+00 ( 0.000000e+00 +/- 0.000000e+00) [K]

Current cycle: 1100 out of 6000
===============================================================================

Box:      26.94253   0.00000   0.00000  Average:  26.02641   0.00000   0.00000
           0.00000  26.94253   0.00000             0.00000  26.02641   0.00000
           0.00000   0.00000  26.94253             0.00000   0.00000  26.02641
Lengths:  26.94253  26.94253  26.94253  Average:  26.02641  26.02641  26.02641
Angles:   90.00000  90.00000  90.00000  Average:  90.00000  90.00000  90.00000
Rectangular boundary conditions

net charge:   0.00000000

component 0 (CO2) lambda:  0 occupancy:  0 (0.000000)
    net charge:   0.00000000 [e]

Amount of molecules per component :
-------------------------------------------------------------------------------
Component 0 (CO2)
    molecules:      2.260000e+02 molecules  (2.060690e+02 +/- 0.000000e+00)
    number density: 1.155562e-02 molec./A^3 (1.169256e-02 +/- 0.000000e+00)
    density:        8.442736e+02 kg/m^3     (8.542784e+02 +/- 0.000000e+00)

Average pressure tensor: 
-------------------------------------------------------------------------------
-3.4426e+00  4.4373e+01 -3.1740e+01 +/- 0.0000e+00 0.0000e+00 0.0000e+00 [bar]
 4.4373e+01 -4.5848e+00  1.1223e+01 +/- 0.0000e+00 0.0000e+00 0.0000e+00 [bar]
-3.1740e+01  1.1223e+01 -2.6143e+01 +/- 0.0000e+00 0.0000e+00 0.0000e+00 [bar]
Ideal-gas pressure:   4.520134e+02 +/ 0.000000e+00 [bar]
Excess pressure:     -4.634034e+02 +/ 0.000000e+00 [bar]
Pressure:            -1.138999e+01 +/ 0.000000e+00 [bar]

Total potential energy/kʙ  -2.768790e+05 (-2.464088e+05 +/- 0.000000e+00) [K]
-------------------------------------------------------------------------------
ExternalField-molecule
    Van der Waals/kʙ        0.000000e+00 ( 0.000000e+00 +/- 0.000000e+00) [K]
Framework-molecule
    Van der Waals/kʙ        0.000000e+00 ( 0.000000e+00 +/- 0.000000e+00) [K]
    Van der Waals (Tail)/kʙ 0.000000e+00 ( 0.000000e+00 +/- 0.000000e+00) [K]
    Coulombic Real/kʙ       0.000000e+00 ( 0.000000e+00 +/- 0.000000e+00) [K]
    Coulombic Fourier/kʙ    0.000000e+00 ( 0.000000e+00 +/- 0.000000e+00) [K]
Molecule-molecule
    Van der Waals/kʙ       -2.055349e+05 (-1.822059e+05 +/- 0.000000e+00) [K]
    Van der Waals (Tail)/kʙ-6.296208e+03 (-5.844880e+03 +/- 0.000000e+00) [K]
    Coulombic Real/kʙ      -5.629866e+04 (-4.976444e+04 +/- 0.000000e+00) [K]
    Coulombic Fourier/kʙ   -8.749275e+03 (-8.593588e+03 +/- 0.000000e+00) [K]
    Molecule Intra/kʙ       0.000000e+00 ( 0.000000e+00 +/- 0.000000e+00) [K]

Current cycle: 1200 out of 6000
===============================================================================

Box:      26.33188   0.00000   0.00000  Average:  26.07582   0.00000   0.00000
           0.00000  26.33188   0.00000             0.00000  26.07582   0.00000
           0.00000   0.00000  26.33188             0.00000   0.00000  26.07582
Lengths:  26.33188  26.33188  26.33188  Average:  26.07582  26.07582  26.07582
Angles:   90.00000  90.00000  90.00000  Average:  90.00000  90.00000  90.00000
Rectangular boundary conditions

net charge:   0.00000000

component 0 (CO2) lambda:  0 occupancy:  0 (0.000000)
    net charge:   0.00000000 [e]

Amount of molecules per component :
-------------------------------------------------------------------------------
Component 0 (CO2)
    molecules:      2.100000e+02 molecules  (2.063081e+02 +/- 0.000000e+00)
    number density: 1.150200e-02 molec./A^3 (1.164140e-02 +/- 0.000000e+00)
    density:        8.403561e+02 kg/m^3     (8.505405e+02 +/- 0.000000e+00)

Average pressure tensor: 
-------------------------------------------------------------------------------
-1.9729e+00  3.9619e+01 -2.6383e+01 +/- 0.0000e+00 0.0000e+00 0.0000e+00 [bar]
 3.9619e+01 -5.3796e+00  4.7529e+00 +/- 0.0000e+00 0.0000e+00 0.0000e+00 [bar]
-2.6383e+01  4.7529e+00 -2.7730e+01 +/- 0.0000e+00 0.0000e+00 0.0000e+00 [bar]
Ideal-gas pressure:   4.500356e+02 +/ 0.000000e+00 [bar]
Excess pressure:     -4.617297e+02 +/ 0.000000e+00 [bar]
Pressure:            -1.169405e+01 +/ 0.000000e+00 [bar]

Total potential energy/kʙ  -2.467471e+05 (-2.455246e+05 +/- 0.000000e+00) [K]
-------------------------------------------------------------------------------
ExternalField-molecule
    Van der Waals/kʙ        0.000000e+00 ( 0.000000e+00 +/- 0.000000e+00) [K]
Framework-molecule
    Van der Waals/kʙ        0.000000e+00 ( 0.000000e+00 +/- 0.000000e+00) [K]
    Van der Waals (Tail)/kʙ 0.000000e+00 ( 0.000000e+00 +/- 0.000000e+00) [K]
    Coulombic Real/kʙ       0.000000e+00 ( 0.000000e+00 +/- 0.000000e+00) [K]
    Coulombic Fourier/kʙ    0.000000e+00 ( 0.000000e+00 +/- 0.000000e+00) [K]
Molecule-molecule
    Van der Waals/kʙ       -1.864329e+05 (-1.815739e+05 +/- 0.000000e+00) [K]
    Van der Waals (Tail)/kʙ-5.823313e+03 (-5.820275e+03 +/- 0.000000e+00) [K]
    Coulombic Real/kʙ      -4.687269e+04 (-4.960030e+04 +/- 0.000000e+00) [K]
    Coulombic Fourier/kʙ   -7.618142e+03 (-8.530086e+03 +/- 0.000000e+00) [K]
    Molecule Intra/kʙ       0.000000e+00 ( 0.000000e+00 +/- 0.000000e+00) [K]

Current cycle: 1300 out of 6000
===============================================================================

Box:      26.73951   0.00000   0.00000  Average:  26.10648   0.00000   0.00000
           0.00000  26.73951   0.00000             0.00000  26.10648   0.00000
           0.00000   0.00000  26.73951             0.00000   0.00000  26.10648
Lengths:  26.73951  26.73951  26.73951  Average:  26.10648  26.10648  26.10648
Angles:   90.00000  90.00000  90.00000  Average:  90.00000  90.00000  90.00000
Rectangular boundary conditions

net charge:   0.00000000

component 0 (CO2) lambda:  0 occupancy:  0 (0.000000)
    net charge:   0.00000000 [e]

Amount of molecules per component :
-------------------------------------------------------------------------------
Component 0 (CO2)
    molecules:      2.200000e+02 molecules  (2.068171e+02 +/- 0.000000e+00)
    number density: 1.150701e-02 molec./A^3 (1.162849e-02 +/- 0.000000e+00)
    density:        8.407220e+02 kg/m^3     (8.495974e+02 +/- 0.000000e+00)

Average pressure tensor: 
-------------------------------------------------------------------------------
 5.5449e+00  3.5208e+01 -1.4821e+01 +/- 0.0000e+00 0.0000e+00 0.0000e+00 [bar]
 3.5208e+01 -1.0263e+01  7.8356e+00 +/- 0.0000e+00 0.0000e+00 0.0000e+00 [bar]
-1.4821e+01  7.8356e+00 -3.5781e+01 +/- 0.0000e+00 0.0000e+00 0.0000e+00 [bar]
Ideal-gas pressure:   4.495366e+02 +/ 0.000000e+00 [bar]
Excess pressure:     -4.630364e+02 +/ 0.000000e+00 [bar]
Pressure:            -1.349974e+01 +/ 0.000000e+00 [bar]

Total potential energy/kʙ  -2.603426e+05 (-2.461403e+05 +/- 0.000000e+00) [K]
-------------------------------------------------------------------------------
ExternalField-molecule
    Van der Waals/kʙ        0.000000e+00 ( 0.000000e+00 +/- 0.000000e+00) [K]
Framework-molecule
    Van der Waals/kʙ        0.000000e+00 ( 0.000000e+00 +/- 0.000000e+00) [K]
    Van der Waals (Tail)/kʙ 0.000000e+00 ( 0.000000e+00 +/- 0.000000e+00) [K]
    Coulombic Real/kʙ       0.000000e+00 ( 0.000000e+00 +/- 0.000000e+00) [K]
    Coulombic Fourier/kʙ    0.000000e+00 ( 0.000000e+00 +/- 0.000000e+00) [K]
Molecule-molecule
    Van der Waals/kʙ       -1.941444e+05 (-1.821333e+05 +/- 0.000000e+00) [K]
    Van der Waals (Tail)/kʙ-6.103270e+03 (-5.832188e+03 +/- 0.000000e+00) [K]
    Coulombic Real/kʙ      -5.183427e+04 (-4.964551e+04 +/- 0.000000e+00) [K]
    Coulombic Fourier/kʙ   -8.260706e+03 (-8.529313e+03 +/- 0.000000e+00) [K]
    Molecule Intra/kʙ       0.000000e+00 ( 0.000000e+00 +/- 0.000000e+00) [K]

Current cycle: 1400 out of 6000
===============================================================================

Box:      27.12221   0.00000   0.00000  Average:  26.16214   0.00000   0.00000
           0.00000  27.12221   0.00000             0.00000  26.16214   0.00000
           0.00000   0.00000  27.12221             0.00000   0.00000  26.16214
Lengths:  27.12221  27.12221  27.12221  Average:  26.16214  26.16214  26.16214
Angles:   90.00000  90.00000  90.00000  Average:  90.00000  90.00000  90.00000
Rectangular boundary conditions

net charge:   0.00000000

component 0 (CO2) lambda:  0 occupancy:  0 (0.000000)
    net charge:   0.00000000 [e]

Amount of molecules per component :
-------------------------------------------------------------------------------
Component 0 (CO2)
    molecules:      2.130000e+02 molecules  (2.071028e+02 +/- 0.000000e+00)
    number density: 1.067590e-02 molec./A^3 (1.157339e-02 +/- 0.000000e+00)
    density:        7.799997e+02 kg/m^3     (8.455720e+02 +/- 0.000000e+00)

Average pressure tensor: 
-------------------------------------------------------------------------------
 1.4523e+01  3.7092e+01 -1.3021e+01 +/- 0.0000e+00 0.0000e+00 0.0000e+00 [bar]
 3.7092e+01  4.2393e+00  6.6543e+00 +/- 0.0000e+00 0.0000e+00 0.0000e+00 [bar]
-1.3021e+01  6.6543e+00 -3.3066e+01 +/- 0.0000e+00 0.0000e+00 0.0000e+00 [bar]
Ideal-gas pressure:   4.474067e+02 +/ 0.000000e+00 [bar]
Excess pressure:     -4.521744e+02 +/ 0.000000e+00 [bar]
Pressure:            -4.767750e+00 +/ 0.000000e+00 [bar]

Total potential energy/kʙ  -2.202009e+05 (-2.450535e+05 +/- 0.000000e+00) [K]
-------------------------------------------------------------------------------
ExternalField-molecule
    Van der Waals/kʙ        0.000000e+00 ( 0.000000e+00 +/- 0.000000e+00) [K]
Framework-molecule
    Van der Waals/kʙ        0.000000e+00 ( 0.000000e+00 +/- 0.000000e+00) [K]
    Van der Waals (Tail)/kʙ 0.000000e+00 ( 0.000000e+00 +/- 0.000000e+00) [K]
    Coulombic Real/kʙ       0.000000e+00 ( 0.000000e+00 +/- 0.000000e+00) [K]
    Coulombic Fourier/kʙ    0.000000e+00 ( 0.000000e+00 +/- 0.000000e+00) [K]
Molecule-molecule
    Van der Waals/kʙ       -1.654377e+05 (-1.812626e+05 +/- 0.000000e+00) [K]
    Van der Waals (Tail)/kʙ-5.482284e+03 (-5.807171e+03 +/- 0.000000e+00) [K]
    Coulombic Real/kʙ      -4.096562e+04 (-4.947945e+04 +/- 0.000000e+00) [K]
    Coulombic Fourier/kʙ   -8.315327e+03 (-8.504229e+03 +/- 0.000000e+00) [K]
    Molecule Intra/kʙ       0.000000e+00 ( 0.000000e+00 +/- 0.000000e+00) [K]

Current cycle: 1500 out of 6000
===============================================================================

Box:      26.31288   0.00000   0.00000  Average:  26.18698   0.00000   0.00000
           0.00000  26.31288   0.00000             0.00000  26.18698   0.00000
           0.00000   0.00000  26.31288             0.00000   0.00000  26.18698
[...]
    number density: 1.223846e-02 molec./A^3 (1.206616e-02 +/- 3.723350e-04)
    density:        8.941631e+02 kg/m^3     (8.815743e+02 +/- 2.720343e+01)

Average pressure tensor: 
-------------------------------------------------------------------------------
 3.1027e+01  4.7912e+00  9.2252e+00 +/- 3.7901e+01 4.2027e+01 3.5868e+01 [bar]
 4.7912e+00  5.4319e+01 -1.4302e+00 +/- 4.2027e+01 4.5064e+01 2.6528e+01 [bar]
 9.2252e+00 -1.4302e+00  1.3787e+01 +/- 3.5868e+01 2.6528e+01 5.8462e+01 [bar]
Ideal-gas pressure:   4.664561e+02 +/ 1.439381e+01 [bar]
Excess pressure:     -4.334120e+02 +/ 2.723831e+01 [bar]
Pressure:             3.304409e+01 +/ 3.825806e+01 [bar]

Total potential energy/kʙ  -2.688409e+05 (-2.407225e+05 +/- 8.593498e+03) [K]
-------------------------------------------------------------------------------
ExternalField-molecule
    Van der Waals/kʙ        0.000000e+00 ( 0.000000e+00 +/- 0.000000e+00) [K]
Framework-molecule
    Van der Waals/kʙ        0.000000e+00 ( 0.000000e+00 +/- 0.000000e+00) [K]
    Van der Waals (Tail)/kʙ 0.000000e+00 ( 0.000000e+00 +/- 0.000000e+00) [K]
    Coulombic Real/kʙ       0.000000e+00 ( 0.000000e+00 +/- 0.000000e+00) [K]
    Coulombic Fourier/kʙ    0.000000e+00 ( 0.000000e+00 +/- 0.000000e+00) [K]
Molecule-molecule
    Van der Waals/kʙ       -1.995909e+05 (-1.779674e+05 +/- 6.375157e+03) [K]
    Van der Waals (Tail)/kʙ-6.343701e+03 (-5.713707e+03 +/- 1.830898e+02) [K]
    Coulombic Real/kʙ      -5.352588e+04 (-4.875310e+04 +/- 1.788610e+03) [K]
    Coulombic Fourier/kʙ   -9.380353e+03 (-8.288303e+03 +/- 2.819020e+02) [K]
    Molecule Intra/kʙ       0.000000e+00 ( 0.000000e+00 +/- 0.000000e+00) [K]

Current cycle: 5800 out of 6000
===============================================================================

Box:      25.51459   0.00000   0.00000  Average:  25.35666   0.00000   0.00000
           0.00000  25.51459   0.00000             0.00000  25.35666   0.00000
           0.00000   0.00000  25.51459             0.00000   0.00000  25.35666
Lengths:  25.51459  25.51459  25.51459  Average:  25.35666  25.35666  25.35666
Angles:   90.00000  90.00000  90.00000  Average:  90.00000  90.00000  90.00000
Rectangular boundary conditions

net charge:   0.00000000

component 0 (CO2) lambda:  0 occupancy:  0 (0.000000)
    net charge:   0.00000000 [e]

Amount of molecules per component :
-------------------------------------------------------------------------------
Component 0 (CO2)
    molecules:      1.900000e+02 molecules  (1.965139e+02 +/- 1.090396e+01)
    number density: 1.143900e-02 molec./A^3 (1.206170e-02 +/- 3.538710e-04)
    density:        8.357527e+02 kg/m^3     (8.812484e+02 +/- 2.585442e+01)

Average pressure tensor: 
-------------------------------------------------------------------------------
 3.1108e+01  3.4907e+00  9.5927e+00 +/- 3.6982e+01 4.3007e+01 3.4387e+01 [bar]
 3.4907e+00  5.2950e+01 -1.1851e+00 +/- 4.3007e+01 4.5629e+01 2.6249e+01 [bar]
 9.5927e+00 -1.1851e+00  1.2171e+01 +/- 3.4387e+01 2.6249e+01 5.4917e+01 [bar]
Ideal-gas pressure:   4.662837e+02 +/ 1.368002e+01 [bar]
Excess pressure:     -4.342074e+02 +/ 2.655901e+01 [bar]
Pressure:             3.207634e+01 +/ 3.664157e+01 [bar]

Total potential energy/kʙ  -2.259501e+05 (-2.405613e+05 +/- 8.668029e+03) [K]
-------------------------------------------------------------------------------
ExternalField-molecule
    Van der Waals/kʙ        0.000000e+00 ( 0.000000e+00 +/- 0.000000e+00) [K]
Framework-molecule
    Van der Waals/kʙ        0.000000e+00 ( 0.000000e+00 +/- 0.000000e+00) [K]
    Van der Waals (Tail)/kʙ 0.000000e+00 ( 0.000000e+00 +/- 0.000000e+00) [K]
    Coulombic Real/kʙ       0.000000e+00 ( 0.000000e+00 +/- 0.000000e+00) [K]
    Coulombic Fourier/kʙ    0.000000e+00 ( 0.000000e+00 +/- 0.000000e+00) [K]
Molecule-molecule
    Van der Waals/kʙ       -1.639964e+05 (-1.778430e+05 +/- 6.441577e+03) [K]
    Van der Waals (Tail)/kʙ-5.239850e+03 (-5.710295e+03 +/- 1.846448e+02) [K]
    Coulombic Real/kʙ      -4.902724e+04 (-4.872129e+04 +/- 1.797936e+03) [K]
    Coulombic Fourier/kʙ   -7.686540e+03 (-8.286657e+03 +/- 2.762288e+02) [K]
    Molecule Intra/kʙ       0.000000e+00 ( 0.000000e+00 +/- 0.000000e+00) [K]

Current cycle: 5900 out of 6000
===============================================================================

Box:      25.81014   0.00000   0.00000  Average:  25.36115   0.00000   0.00000
           0.00000  25.81014   0.00000             0.00000  25.36115   0.00000
           0.00000   0.00000  25.81014             0.00000   0.00000  25.36115
Lengths:  25.81014  25.81014  25.81014  Average:  25.36115  25.36115  25.36115
Angles:   90.00000  90.00000  90.00000  Average:  90.00000  90.00000  90.00000
Rectangular boundary conditions

net charge:   0.00000000

component 0 (CO2) lambda:  0 occupancy:  0 (0.000000)
    net charge:   0.00000000 [e]

Amount of molecules per component :
-------------------------------------------------------------------------------
Component 0 (CO2)
    molecules:      2.090000e+02 molecules  (1.964831e+02 +/- 1.068884e+01)
    number density: 1.215556e-02 molec./A^3 (1.205348e-02 +/- 3.353509e-04)
    density:        8.881060e+02 kg/m^3     (8.806480e+02 +/- 2.450131e+01)

Average pressure tensor: 
-------------------------------------------------------------------------------
 3.2025e+01  3.1150e+00  9.3557e+00 +/- 3.7640e+01 4.3005e+01 3.4114e+01 [bar]
 3.1150e+00  5.3211e+01 -9.5245e-01 +/- 4.3005e+01 4.5390e+01 2.6071e+01 [bar]
 9.3557e+00 -9.5245e-01  1.2687e+01 +/- 3.4114e+01 2.6071e+01 5.4860e+01 [bar]
Ideal-gas pressure:   4.659660e+02 +/ 1.296406e+01 [bar]
Excess pressure:     -4.333249e+02 +/ 2.701341e+01 [bar]
Pressure:             3.264117e+01 +/ 3.690084e+01 [bar]

Total potential energy/kʙ  -2.569678e+05 (-2.403996e+05 +/- 8.741113e+03) [K]
-------------------------------------------------------------------------------
ExternalField-molecule
    Van der Waals/kʙ        0.000000e+00 ( 0.000000e+00 +/- 0.000000e+00) [K]
Framework-molecule
    Van der Waals/kʙ        0.000000e+00 ( 0.000000e+00 +/- 0.000000e+00) [K]
    Van der Waals (Tail)/kʙ 0.000000e+00 ( 0.000000e+00 +/- 0.000000e+00) [K]
    Coulombic Real/kʙ       0.000000e+00 ( 0.000000e+00 +/- 0.000000e+00) [K]
    Coulombic Fourier/kʙ    0.000000e+00 ( 0.000000e+00 +/- 0.000000e+00) [K]
Molecule-molecule
    Van der Waals/kʙ       -1.927775e+05 (-1.777215e+05 +/- 6.500727e+03) [K]
    Van der Waals (Tail)/kʙ-6.124894e+03 (-5.707601e+03 +/- 1.850574e+02) [K]
    Coulombic Real/kʙ      -4.865286e+04 (-4.868926e+04 +/- 1.808251e+03) [K]
    Coulombic Fourier/kʙ   -9.412521e+03 (-8.281266e+03 +/- 2.783729e+02) [K]
    Molecule Intra/kʙ       0.000000e+00 ( 0.000000e+00 +/- 0.000000e+00) [K]


Energy statistics             |  Energy [K]   | Recomputed [K]|  Drift [K]    |
===============================================================================
Total potential energy/kʙ     | -2.641722e+05 | -2.647076e+05 |  5.353489e+02 |
    external field VDW/kʙ     |  0.000000e+00 |  0.000000e+00 |  0.000000e+00 |
    external field Real/kʙ    |  0.000000e+00 |  0.000000e+00 |  0.000000e+00 |
    framework-molecule VDW/kʙ |  0.000000e+00 |  0.000000e+00 |  0.000000e+00 |
    framework-molecule Real/kʙ|  0.000000e+00 |  0.000000e+00 |  0.000000e+00 |
    molecule-molecule VDW/kʙ  | -1.947067e+05 | -1.952417e+05 |  5.350005e+02 |
    molecule-molecule Real/kʙ | -5.589677e+04 | -5.589711e+04 |  3.484348e-01 |
    Van der Waals (Tail)/kʙ   | -6.166539e+03 | -6.166539e+03 |  0.000000e+00 |
    Ewald Fourier/kʙ          |  1.156776e+04 |  1.156776e+04 |  1.531420e-11 |
    Ewald self/kʙ             | -4.204808e+06 | -4.204808e+06 |  0.000000e+00 |
    Ewald exclusion/kʙ        |  4.185838e+06 |  4.185838e+06 |  0.000000e+00 |
    intra VDW/kʙ              |  0.000000e+00 |  0.000000e+00 |  0.000000e+00 |
    intra Coulombic/kʙ        |  0.000000e+00 |  0.000000e+00 |  0.000000e+00 |
    polarization/kʙ           |  0.000000e+00 |  0.000000e+00 |  0.000000e+00 |
    dU/dlambda VDW/kʙ         |  0.000000e+00 |  0.000000e+00 |  0.000000e+00 |
    dU/dlambda Real/kʙ        |  0.000000e+00 |  0.000000e+00 |  0.000000e+00 |
    dU/dlambda Ewald/kʙ       |  0.000000e+00 |  0.000000e+00 |  0.000000e+00 |
-------------------------------------------------------------------------------


Monte-Carlo moves statistics
===============================================================================

    Gibbs volume         all:                2952
    Gibbs volume         total:              5844
    Gibbs volume         constructed:        5844
    Gibbs volume         accepted:           4590
    Gibbs volume         fraction:       0.785421
    Gibbs volume         max-change:     0.037500

Component 0 [CO2]
    Reinsertion (CBMC)   all:              149349
    Reinsertion (CBMC)   total:            149349
    Reinsertion (CBMC)   constructed:      146574
    Reinsertion (CBMC)   accepted:          14953
    Reinsertion (CBMC)   fraction:       0.100121
    Reinsertion (CBMC)   max-change:     0.000000

    Gibbs swap (CBMC)    all:              299119
    Gibbs swap (CBMC)    total:            598087
    Gibbs swap (CBMC)    constructed:      592184
    Gibbs swap (CBMC)    accepted:         115287
    Gibbs swap (CBMC)    fraction:       0.192760
    Gibbs swap (CBMC)    max-change:     0.000000

    Translation          all:              149531
    Translation          total:             49781      50360      49390
    Translation          constructed:       49781      50360      49390
    Translation          accepted:          27052      25918      24608
    Translation          fraction:       0.543420   0.514654   0.498239
    Translation          max-change:     0.821815   0.858136   0.885976

    Rotation             all:              148941
    Rotation             total:             49656      49523      49762
    Rotation             constructed:       49626      49523      49761
    Rotation             accepted:          21600      28653      26448
    Rotation             fraction:       0.434993   0.578580   0.531490
    Rotation             max-change:     0.981290   0.780577   0.859418



Production run counting of the MC moves summed over systems and components
===============================================================================

Reinsertion (CBMC)                   298382 (19.8921 [%])
Gibbs volume                           5844 (0.3896 [%])
Gibbs swap (CBMC)                    598087 (39.8725 [%])
Translation                          298915 (19.9277 [%])
Rotation                             298772 (19.9181 [%])

Production count MC-steps:          1500000 [-]
               All summed:          1500000 [-]
               difference:                0 [-]


Production run CPU timings of the MC moves
===============================================================================

Component 0 CO2

Rotation                             12.578497 [s]
    Ewald                             4.796445 [s]
    ExternalField-Molecule            0.005053 [s]
    Framework-Molecule                0.005373 [s]
    Molecule-Molecule                 7.454814 [s]
    Overhead                          0.316812 [s]

Reinsertion (CBMC)                   63.440261 [s]
    Ewald                             4.780377 [s]
    NonEwald                         58.534899 [s]
    Overhead                          0.124985 [s]

Translation                          12.671043 [s]
    Ewald                             4.817644 [s]
    ExternalField-Molecule            0.004949 [s]
    Framework-Molecule                0.009523 [s]
    Molecule-Molecule                 7.522341 [s]
    Overhead                          0.316586 [s]



Gibbs swap (CBMC)                    96.268086 [s]
    Ewald                            13.010724 [s]
    NonEwald                         81.837505 [s]
    Tail                              0.820263 [s]

Gibbs volume                         12.440440 [s]
    Ewald                             3.947309 [s]
    NonEwald                          8.065754 [s]
    Tail                              0.334862 [s]

Property sampling                     0.232651 [s]
Energy/pressure sampling:             5.514688 [s]


Production run CPU timings of the MC moves summed over systems and components
===============================================================================


Translation                          17.836057 [s]
    Ewald                             8.219746 [s]
    ExternalField-Molecule            0.010004 [s]
    Framework-Molecule                0.018952 [s]
    Molecule-Molecule                 8.940719 [s]
    Overhead                          0.646636 [s]

Rotation                             17.760277 [s]
    Ewald                             8.219502 [s]
    ExternalField-Molecule            0.010215 [s]
    Framework-Molecule                0.010731 [s]
    Molecule-Molecule                 8.867260 [s]
    Overhead                          0.652569 [s]

Reinsertion (CBMC)                   81.190105 [s]
    Ewald                             8.226536 [s]
    NonEwald                         72.585815 [s]
    Overhead                          0.377754 [s]

Gibbs volume                         24.636839 [s]
    Ewald                             7.834131 [s]
    NonEwald                         15.957758 [s]
    Tail                              0.663209 [s]
    Overhead                          0.181741 [s]

Gibbs swap (CBMC)                   214.331894 [s]
    Ewald                            26.311435 [s]
    NonEwald                        185.006119 [s]
    Tail                              1.781457 [s]
    Overhead                          1.232883 [s]

Property sampling:                    0.478549 [s]
Energy/pressure sampling:             6.250095 [s]

Production simulation time:         363.362303 [s]
                All summed:         362.483816 [s]
                  Overhead:           0.878487 [s]


Initalization simulation time:      112.696978 [s]
Equilibration simulation time:        0.000000 [s]
Production simulation time:         363.362303 [s]
Total simulation time:              476.059281 [s]


Energy averages and statistics:
===============================================================================

Framework-molecule energy:
-------------------------------------------------------------------------------



Framework-molecule energy contributions per energy type:
-------------------------------------------------------------------------------



Inter-molecular energy:
-------------------------------------------------------------------------------

    Inter-molecular energy/kʙ 0-0 [CO2-CO2]:
    ---------------------------------------------------------------------------
        Block[  0] -2.455144e+05
        Block[  1] -2.443442e+05
        Block[  2] -2.316255e+05
        Block[  3] -2.463024e+05
        Block[  4] -2.346965e+05
        -----------------------------------------------------------------------
        Average  -2.404966e+05 +/-  8.466251e+03 [K]



Inter-molecular energy contributions per energy type:
-------------------------------------------------------------------------------

    Van der Waals energy/kʙ 0-0 [CO2-CO2]:
    ---------------------------------------------------------------------------
        Block[  0] -1.815334e+05
        Block[  1] -1.807619e+05
        Block[  2] -1.710490e+05
        Block[  3] -1.819918e+05
        Block[  4] -1.735535e+05
        -----------------------------------------------------------------------
        Average  -1.777779e+05 +/-  6.326859e+03 [K]

    VDW Tail-Correction energy/kʙ 0-0 [CO2-CO2]:
    ---------------------------------------------------------------------------
        Block[  0] -5.820250e+03
        Block[  1] -5.789549e+03
        Block[  2] -5.519718e+03
        Block[  3] -5.829467e+03
        Block[  4] -5.588223e+03
        -----------------------------------------------------------------------
        Average  -5.709442e+03 +/-  1.796813e+02 [K]

    Coulomb Real energy/kʙ 0-0 [CO2-CO2]:
    ---------------------------------------------------------------------------
        Block[  0] -4.962303e+04
        Block[  1] -4.938196e+04
        Block[  2] -4.700933e+04
        Block[  3] -5.012790e+04
        Block[  4] -4.750123e+04
        -----------------------------------------------------------------------
        Average  -4.872869e+04 +/-  1.716550e+03 [K]

    Coulomb Fourier energy/kʙ 0-0 [CO2-CO2]:
    ---------------------------------------------------------------------------
        Block[  0] -8.537686e+03
        Block[  1] -8.410832e+03
        Block[  2] -8.047500e+03
        Block[  3] -8.353248e+03
        Block[  4] -8.053577e+03
        -----------------------------------------------------------------------
        Average  -8.280569e+03 +/-  2.735495e+02 [K]


Total energy/kʙ
-------------------------------------------------------------------------------
    Block[  0] -2.455144e+05
    Block[  1] -2.443442e+05
    Block[  2] -2.316255e+05
    Block[  3] -2.463024e+05
    Block[  4] -2.346965e+05
    ---------------------------------------------------------------------------
    Average  -2.404966e+05 +/-  8.466251e+03 [K]

Pressure averages and statistics:
===============================================================================

Average pressure tensor: 
-------------------------------------------------------------------------------
 3.1597e+01  2.1177e+00  1.1460e+01 +/- 3.6208e+01 4.3643e+01 3.1455e+01 [bar]
 2.1177e+00  5.1701e+01  1.4985e+00 +/- 4.3643e+01 4.6107e+01 2.5995e+01 [bar]
 1.1460e+01  1.4985e+00  1.3832e+01 +/- 3.1455e+01 2.5995e+01 5.5559e+01 [bar]

    Block[  0]  4.500401e+07
    Block[  1]  4.613211e+07
    Block[  2]  4.745086e+07
    Block[  3]  4.704187e+07
    Block[  4]  4.730919e+07
    ---------------------------------------------------------------------------
    Ideal gas pressure   4.658761e+07 +/-  7.649494e-02 [Pa]
                         4.658761e+02 +/-  1.270229e+01 [bar]


    Block[  0] -4.619420e+07
    Block[  1] -4.204976e+07
    Block[  2] -4.097886e+07
    Block[  3] -4.496970e+07
    Block[  4] -4.255726e+07
    ---------------------------------------------------------------------------
    Excess pressure  -4.334996e+07 +/-  2.680979e+06 [Pa]
                     -4.334996e+02 +/-  2.680979e+01 [bar]


    Block[  0] -1.190192e+06
    Block[  1]  4.082347e+06
    Block[  2]  6.472000e+06
    Block[  3]  2.072168e+06
    Block[  4]  4.751927e+06
    ---------------------------------------------------------------------------
    Pressure average   3.237650e+06 +/-  3.642367e+06 [Pa]
                       3.237650e+01 +/-  3.642367e+01 [bar]


Enthalpy of adsorption
===============================================================================

Component 0 [CO2]
-------------------------------------------------------------------------------
    Block[  0] -1.757469e+03
    Block[  1] -1.105658e+03
    Block[  2] -2.228786e+03
    Block[  3] -1.297695e+03
    Block[  4] -1.383546e+03
    ---------------------------------------------------------------------------
    Enthalpy of adsorption: -1.554631e+03 +/-  5.525885e+02 [K]
                            -1.292592e+01 +/-  4.594477e+00 [kJ/mol]
    Warning: need to subtract the ideal-gas energy.


Densities
===============================================================================

Component 0 (CO2)
    Block[  0] 206.305
    Block[  1] 201.45833333333334
    Block[  2] 186.74666666666667
    Block[  3] 199.25250000000003
    Block[  4] 189.14000000000001
    -----------------------------------------------------------------------
    Density average   1.965805e+02 +/-  1.034156e+01 [molecules]
    Density average   1.205116e-02 +/-  3.285794e-04 [molec/A^3]
    Density average   8.804780e+02 +/-  2.400658e+01 [kg.m⁻³]

