Compiler and run-time data
===============================================================================
RASPA 3.0.4

Random seed: 138968158

Compiled as a 64-bits application
Compiler: gcc Ubuntu Clang 18.1.3 (1ubuntu1)
Compile Date = Mar 15 2025, Compile Time = 19:39:45

2025-06-02 13:21:36.156664
Simulation started on Mon, Jun 02
The start time was 13:21:00

Hostname:    c062
OS type:     Linux on x86_64
OS release:  6.8.0-58-generic
OS version:  #60-Ubuntu SMP PREEMPT_DYNAMIC Fri Mar 14 18:29:48 UTC 2025


Mutual consistent basic set of units:
===============================================================================

Unit of temperature: 1 [K]
Unit of length:      1e-10 [m]
Unit of time:        1e-12 [s]
Unit of mass:        1.6605402e-27 [kg]
Unit of charge:      1.60217733e-19 [C/particle]


Boltzmann constant (internal units):          0.8314464919307584 [-]
represents conversion from energy (internal units) to temperature (in Kelvin)

Derived units and their conversion factors:
===============================================================================

Unit of energy:                           1.6605402000000002e-23 [J]
Unit of energy:                           10.000008872307538 [J.mol⁻¹]
Unit of velocity:                         100 [m.s⁻¹]
Unit of force:                            1.6605402000000002e-13 [N]
Unit of diffusion:                        1.0000000000000002e-08 [m².s⁻¹]
Unit of acceleration:                     1.0000000000000002e-08 [m².s⁻¹]
Unit of torque:                           1.6605402000000002e-23 [N.m]
Unit of pressure:                         16605402 [Pa]
Unit of volume:                           1e-30 [m³]
Unit of density:                          1660.5402 [kg.m⁻³]
Unit of dynamic viscosity:                1.6605401999999997e-05 [N.s.m⁻²]
Unit of enthalpy:                         1.6605402000000002e-23 [J]
Unit of polarizability:                   1.5458657349975198e-35 [-]
Unit of Coulomb potential:                167101.08000665612 [K]
Unit of dielectric constant:              1.5458657349975193e-05 [s².C².kg⁻¹.m⁻³]
Unit of dipole moment:                    1.60217733e-29 [C.m]
Unit of Debye:                            4.803206799099162 [C.m]
Unit of electric potential:               0.00010364272224473431 [V]
Unit of electric field:                   1036427.222447343 [V.m⁻¹]
Unit of isothermal compressibility:       6.02213665167516e-08 [Pa⁻¹]
Unit of heat capacity:                    10.000008872307538 [J.mol⁻¹.K⁻¹]
Unit of volumetric expansion coefficient: 1 [K⁻¹]


Internal conversion factors:
===============================================================================

Energy (internal units) to Kelvin:      1.202724284692786 [-]
Kelvin to energy (internal units):      0.8314457542157567 [-]


System definitions
===============================================================================

Temperature:          250 [K]
Beta:                 0.0048108928702210625 [-]
Pressure:             1.6e+07 [Pa]
Helium void fraction: 1 [-]

Box:      30.00000   0.00000   0.00000
           0.00000  30.00000   0.00000
           0.00000   0.00000  30.00000
Lengths:  30.00000  30.00000  30.00000
Angles:   90.00000  90.00000  90.00000
Rectangular boundary conditions



Property measurement settings
===============================================================================




Pseudo-atoms
===============================================================================

  0 - C_co2    framework-atom: false
  1 - O_co2    framework-atom: false

  0 - C_co2    mass: 12.00000, charge:  0.70000
  1 - O_co2    mass: 15.99940, charge: -0.35000

  0 - C_co2    polarizability:  0.00000
  1 - O_co2    polarizability:  0.00000

  0 - J. J. Potoff et al., AIChE J. 2001, 47, 1676–1682.
  1 - J. J. Potoff et al., AIChE J. 2001, 47, 1676–1682.

Force field status
===============================================================================

Cutoff Framework-Molecule VDW:  11.00000 [Å]
Cutoff Molecule-Molecule VDW:   11.00000 [Å]
Cutoff Coulomb:                 11.00000 [Å]

Overlap-criteria VDW:           1.000000e+05 [K]

C_co2    - C_co2    Lennard-Jones p₀/kʙ:  27.00000 [K], p₁:  2.80000 [Å]
                                  shift:   0.00000 [K], tailcorrections: true
C_co2    - O_co2    Lennard-Jones p₀/kʙ:  46.18441 [K], p₁:  2.92500 [Å]
                                  shift:   0.00000 [K], tailcorrections: true
O_co2    - O_co2    Lennard-Jones p₀/kʙ:  79.00000 [K], p₁:  3.05000 [Å]
                                  shift:   0.00000 [K], tailcorrections: true

Ewald precision: 1e-06
Ewald alpha: 0.2903408740940883
Ewald k-vectors: 9 9 9


Component definitions
===============================================================================

Component 0 [CO2]

    Type: Adsorbate

    Critical temperature:  304.1282 [K]
    Critical pressure:     7377300 [Pa]
    Acentric factor:       0.22394 [-]

    Mol-fraction:                 1 [-]
    Swappable:                   false

    Mass:                         43.9988 [-]
    Bulk fluid density:           0 [-]
    Compressibility:              0 [-]
    Excess molecules:             0 [-]

    Number Of Atoms:    3
    CBMC starting bead: 0
      0: O_co2  position  0.00000 -0.00000  1.16000, charge -0.35000
      1: C_co2  position  0.00000 -0.00000  0.00000, charge  0.70000
      2: O_co2  position  0.00000 -0.00000 -1.16000, charge -0.35000
    Diagonalized inertia-vector:      43.05758528 43.05758528 0.00000000
    Translational degrees of freedom: 3
    Rotational degrees of freedom:    2
    Shape of the molecule is: 'Linear'
    Net-charge:        0.00000000 [e]

    Move probabilities:
    Translation:                   0.331126 [-]
    Random translation:            0.000000 [-]
    Rotation:                      0.331126 [-]
    Random rotation:               0.000000 [-]
    Volume change:                 0.006623 [-]
    Reinsertion (CBMC):            0.331126 [-]
    Identity change (CBMC):        0.000000 [-]
    Swap:                          0.000000 [-]
    Swap (CBMC):                   0.000000 [-]
    Swap (CFCMC):                  0.000000 [-]
    Swap (CB/CFCMC):               0.000000 [-]
    Gibbs volume:                  0.000000 [-]
    Gibbs swap (CBMC):             0.000000 [-]
    Gibbs swap (CFCMC):            0.000000 [-]
    Widom:                         0.000000 [-]
    Widom (CFCMC):                 0.000000 [-]
    Widom (CB/CFCMC):              0.000000 [-]
    Parallel tempering:            0.000000 [-]
    Hybrid MC:                     0.000000 [-]

    number of blocking-pockets: 0

    number of bonds: 0





Number of pseudo-atoms
===============================================================================

Component   0 (CO2)
-------------------------------------------------------------------------------
    index   0 (C_co2): 200 atoms
    index   1 (O_co2): 400 atoms

Total number of pseudo-atoms:
-------------------------------------------------------------------------------
    index   0 (C_co2): 200 atoms
    index   1 (O_co2): 400 atoms




Energy status Recomputed from scratch
===============================================================================

Total potential energy/kʙ       -9.294310e+04 [K]
    external field VDW/kʙ        0.000000e+00 [K]
    external field Real/kʙ       0.000000e+00 [K]
    framework-molecule VDW/kʙ    0.000000e+00 [K]
    framework-molecule Real/kʙ   0.000000e+00 [K]
    molecule-molecule VDW/kʙ    -7.299079e+04 [K]
    molecule-molecule Real/kʙ   -1.449143e+04 [K]
    Van der Waals (Tail)/kʙ     -3.571688e+03 [K]
    Ewald Fourier/kʙ             1.626391e+04 [K]
    Ewald self/kʙ               -4.023739e+06 [K]
    Ewald exclusion/kʙ           4.005586e+06 [K]
    intra VDW/kʙ                 0.000000e+00 [K]
    intra Coulombic/kʙ           0.000000e+00 [K]
    polarization/kʙ              0.000000e+00 [K]
    dU/dlambda VDW/kʙ            0.000000e+00 [K]
    dU/dlambda Real/kʙ           0.000000e+00 [K]
    dU/dlambda Ewald/kʙ          0.000000e+00 [K]





Initialization: Current cycle: 0 out of 1000
===============================================================================

Box:      30.13776   0.00000   0.00000
           0.00000  30.13776   0.00000
           0.00000   0.00000  30.13776
Lengths:  30.13776  30.13776  30.13776
Angles:   90.00000  90.00000  90.00000
Rectangular boundary conditions

net charge:   0.00000000

component   0 (CO2) lambda:  0 occupancy:  1 (1.000000)
    net charge:   0.00000000 [e]

Amount of molecules per component :
-------------------------------------------------------------------------------
Component 0 (CO2)
    molecules:         2.000000e+02 molecules
    number density:    7.306295e-03 molec/A^3
    density:           5.338104e+02 kg/m^3

Total potential energy/kʙ       -1.243440e+05 [K]
-------------------------------------------------------------------------------
    external field VDW/kʙ        0.000000e+00 [K]
    external field Real/kʙ       0.000000e+00 [K]
    framework-molecule VDW/kʙ    0.000000e+00 [K]
    framework-molecule Real/kʙ   0.000000e+00 [K]
    molecule-molecule VDW/kʙ    -1.019124e+05 [K]
    molecule-molecule Real/kʙ   -1.576460e+04 [K]
    Van der Waals (Tail)/kʙ     -3.522934e+03 [K]
    Ewald Fourier/kʙ             1.500912e+04 [K]
    Ewald self/kʙ               -4.023739e+06 [K]
    Ewald exclusion/kʙ           4.005586e+06 [K]
    intra VDW/kʙ                 0.000000e+00 [K]
    intra Coulombic/kʙ           0.000000e+00 [K]
    polarization/kʙ              0.000000e+00 [K]
    dU/dlambda VDW/kʙ            0.000000e+00 [K]
    dU/dlambda Real/kʙ           0.000000e+00 [K]
    dU/dlambda Ewald/kʙ          0.000000e+00 [K]


Initialization: Current cycle: 100 out of 1000
===============================================================================

Box:      26.95898   0.00000   0.00000
           0.00000  26.95898   0.00000
           0.00000   0.00000  26.95898
Lengths:  26.95898  26.95898  26.95898
Angles:   90.00000  90.00000  90.00000
Rectangular boundary conditions

net charge:   0.00000000

component   0 (CO2) lambda:  0 occupancy:  1 (1.000000)
    net charge:   0.00000000 [e]

Amount of molecules per component :
-------------------------------------------------------------------------------
Component 0 (CO2)
    molecules:         2.000000e+02 molecules
    number density:    1.020751e-02 molec/A^3
    density:           7.457780e+02 kg/m^3

Total potential energy/kʙ       -2.233534e+05 [K]
-------------------------------------------------------------------------------
    external field VDW/kʙ        0.000000e+00 [K]
    external field Real/kʙ       0.000000e+00 [K]
    framework-molecule VDW/kʙ    0.000000e+00 [K]
    framework-molecule Real/kʙ   0.000000e+00 [K]
    molecule-molecule VDW/kʙ    -1.656088e+05 [K]
    molecule-molecule Real/kʙ   -4.583264e+04 [K]
    Van der Waals (Tail)/kʙ     -4.921835e+03 [K]
    Ewald Fourier/kʙ             1.116298e+04 [K]
    Ewald self/kʙ               -4.023739e+06 [K]
    Ewald exclusion/kʙ           4.005586e+06 [K]
    intra VDW/kʙ                 0.000000e+00 [K]
    intra Coulombic/kʙ           0.000000e+00 [K]
    polarization/kʙ              0.000000e+00 [K]
    dU/dlambda VDW/kʙ            0.000000e+00 [K]
    dU/dlambda Real/kʙ           0.000000e+00 [K]
    dU/dlambda Ewald/kʙ          0.000000e+00 [K]


Initialization: Current cycle: 200 out of 1000
===============================================================================

Box:      24.82406   0.00000   0.00000
           0.00000  24.82406   0.00000
           0.00000   0.00000  24.82406
Lengths:  24.82406  24.82406  24.82406
Angles:   90.00000  90.00000  90.00000
Rectangular boundary conditions

net charge:   0.00000000

component   0 (CO2) lambda:  0 occupancy:  1 (1.000000)
    net charge:   0.00000000 [e]

Amount of molecules per component :
-------------------------------------------------------------------------------
Component 0 (CO2)
    molecules:         2.000000e+02 molecules
    number density:    1.307409e-02 molec/A^3
    density:           9.552152e+02 kg/m^3

Total potential energy/kʙ       -2.645945e+05 [K]
-------------------------------------------------------------------------------
    external field VDW/kʙ        0.000000e+00 [K]
    external field Real/kʙ       0.000000e+00 [K]
    framework-molecule VDW/kʙ    0.000000e+00 [K]
    framework-molecule Real/kʙ   0.000000e+00 [K]
    molecule-molecule VDW/kʙ    -1.941217e+05 [K]
    molecule-molecule Real/kʙ   -5.536811e+04 [K]
    Van der Waals (Tail)/kʙ     -6.304036e+03 [K]
    Ewald Fourier/kʙ             9.352428e+03 [K]
    Ewald self/kʙ               -4.023739e+06 [K]
    Ewald exclusion/kʙ           4.005586e+06 [K]
    intra VDW/kʙ                 0.000000e+00 [K]
    intra Coulombic/kʙ           0.000000e+00 [K]
    polarization/kʙ              0.000000e+00 [K]
    dU/dlambda VDW/kʙ            0.000000e+00 [K]
    dU/dlambda Real/kʙ           0.000000e+00 [K]
    dU/dlambda Ewald/kʙ          0.000000e+00 [K]


Initialization: Current cycle: 300 out of 1000
===============================================================================

Box:      24.20621   0.00000   0.00000
           0.00000  24.20621   0.00000
           0.00000   0.00000  24.20621
Lengths:  24.20621  24.20621  24.20621
Angles:   90.00000  90.00000  90.00000
Rectangular boundary conditions

net charge:   0.00000000

component   0 (CO2) lambda:  0 occupancy:  1 (1.000000)
    net charge:   0.00000000 [e]

Amount of molecules per component :
-------------------------------------------------------------------------------
Component 0 (CO2)
    molecules:         2.000000e+02 molecules
    number density:    1.410099e-02 molec/A^3
    density:           1.030242e+03 kg/m^3

Total potential energy/kʙ       -2.906554e+05 [K]
-------------------------------------------------------------------------------
    external field VDW/kʙ        0.000000e+00 [K]
    external field Real/kʙ       0.000000e+00 [K]
    framework-molecule VDW/kʙ    0.000000e+00 [K]
    framework-molecule Real/kʙ   0.000000e+00 [K]
    molecule-molecule VDW/kʙ    -2.123033e+05 [K]
    molecule-molecule Real/kʙ   -6.257305e+04 [K]
    Van der Waals (Tail)/kʙ     -6.799184e+03 [K]
    Ewald Fourier/kʙ             9.173181e+03 [K]
    Ewald self/kʙ               -4.023739e+06 [K]
    Ewald exclusion/kʙ           4.005586e+06 [K]
    intra VDW/kʙ                 0.000000e+00 [K]
    intra Coulombic/kʙ           0.000000e+00 [K]
    polarization/kʙ              0.000000e+00 [K]
    dU/dlambda VDW/kʙ            0.000000e+00 [K]
    dU/dlambda Real/kʙ           0.000000e+00 [K]
    dU/dlambda Ewald/kʙ          0.000000e+00 [K]


Initialization: Current cycle: 400 out of 1000
===============================================================================

Box:      24.18169   0.00000   0.00000
           0.00000  24.18169   0.00000
           0.00000   0.00000  24.18169
Lengths:  24.18169  24.18169  24.18169
Angles:   90.00000  90.00000  90.00000
Rectangular boundary conditions

net charge:   0.00000000

component   0 (CO2) lambda:  0 occupancy:  1 (1.000000)
    net charge:   0.00000000 [e]

Amount of molecules per component :
-------------------------------------------------------------------------------
Component 0 (CO2)
    molecules:         2.000000e+02 molecules
    number density:    1.414393e-02 molec/A^3
    density:           1.033379e+03 kg/m^3

Total potential energy/kʙ       -2.957206e+05 [K]
-------------------------------------------------------------------------------
    external field VDW/kʙ        0.000000e+00 [K]
    external field Real/kʙ       0.000000e+00 [K]
    framework-molecule VDW/kʙ    0.000000e+00 [K]
    framework-molecule Real/kʙ   0.000000e+00 [K]
    molecule-molecule VDW/kʙ    -2.134713e+05 [K]
    molecule-molecule Real/kʙ   -6.477783e+04 [K]
    Van der Waals (Tail)/kʙ     -6.819888e+03 [K]
    Ewald Fourier/kʙ             7.501582e+03 [K]
    Ewald self/kʙ               -4.023739e+06 [K]
    Ewald exclusion/kʙ           4.005586e+06 [K]
    intra VDW/kʙ                 0.000000e+00 [K]
    intra Coulombic/kʙ           0.000000e+00 [K]
    polarization/kʙ              0.000000e+00 [K]
    dU/dlambda VDW/kʙ            0.000000e+00 [K]
    dU/dlambda Real/kʙ           0.000000e+00 [K]
    dU/dlambda Ewald/kʙ          0.000000e+00 [K]


Initialization: Current cycle: 500 out of 1000
===============================================================================

Box:      23.94263   0.00000   0.00000
           0.00000  23.94263   0.00000
           0.00000   0.00000  23.94263
Lengths:  23.94263  23.94263  23.94263
Angles:   90.00000  90.00000  90.00000
Rectangular boundary conditions

net charge:   0.00000000

component   0 (CO2) lambda:  0 occupancy:  1 (1.000000)
    net charge:   0.00000000 [e]

Amount of molecules per component :
-------------------------------------------------------------------------------
Component 0 (CO2)
    molecules:         2.000000e+02 molecules
    number density:    1.457184e-02 molec/A^3
    density:           1.064644e+03 kg/m^3

Total potential energy/kʙ       -3.047789e+05 [K]
-------------------------------------------------------------------------------
    external field VDW/kʙ        0.000000e+00 [K]
    external field Real/kʙ       0.000000e+00 [K]
    framework-molecule VDW/kʙ    0.000000e+00 [K]
    framework-molecule Real/kʙ   0.000000e+00 [K]
    molecule-molecule VDW/kʙ    -2.224889e+05 [K]
    molecule-molecule Real/kʙ   -6.532599e+04 [K]
    Van der Waals (Tail)/kʙ     -7.026220e+03 [K]
    Ewald Fourier/kʙ             8.215372e+03 [K]
    Ewald self/kʙ               -4.023739e+06 [K]
    Ewald exclusion/kʙ           4.005586e+06 [K]
    intra VDW/kʙ                 0.000000e+00 [K]
    intra Coulombic/kʙ           0.000000e+00 [K]
    polarization/kʙ              0.000000e+00 [K]
    dU/dlambda VDW/kʙ            0.000000e+00 [K]
    dU/dlambda Real/kʙ           0.000000e+00 [K]
    dU/dlambda Ewald/kʙ          0.000000e+00 [K]


Initialization: Current cycle: 600 out of 1000
===============================================================================

Box:      23.88419   0.00000   0.00000
           0.00000  23.88419   0.00000
           0.00000   0.00000  23.88419
Lengths:  23.88419  23.88419  23.88419
Angles:   90.00000  90.00000  90.00000
Rectangular boundary conditions

net charge:   0.00000000

component   0 (CO2) lambda:  0 occupancy:  1 (1.000000)
    net charge:   0.00000000 [e]

Amount of molecules per component :
-------------------------------------------------------------------------------
Component 0 (CO2)
    molecules:         2.000000e+02 molecules
    number density:    1.467906e-02 molec/A^3
    density:           1.072477e+03 kg/m^3

Total potential energy/kʙ       -3.129343e+05 [K]
-------------------------------------------------------------------------------
    external field VDW/kʙ        0.000000e+00 [K]
    external field Real/kʙ       0.000000e+00 [K]
    framework-molecule VDW/kʙ    0.000000e+00 [K]
    framework-molecule Real/kʙ   0.000000e+00 [K]
    molecule-molecule VDW/kʙ    -2.282021e+05 [K]
    molecule-molecule Real/kʙ   -6.714486e+04 [K]
    Van der Waals (Tail)/kʙ     -7.077918e+03 [K]
    Ewald Fourier/kʙ             7.643635e+03 [K]
    Ewald self/kʙ               -4.023739e+06 [K]
    Ewald exclusion/kʙ           4.005586e+06 [K]
    intra VDW/kʙ                 0.000000e+00 [K]
    intra Coulombic/kʙ           0.000000e+00 [K]
    polarization/kʙ              0.000000e+00 [K]
    dU/dlambda VDW/kʙ            0.000000e+00 [K]
    dU/dlambda Real/kʙ           0.000000e+00 [K]
    dU/dlambda Ewald/kʙ          0.000000e+00 [K]


Initialization: Current cycle: 700 out of 1000
===============================================================================

Box:      23.68999   0.00000   0.00000
           0.00000  23.68999   0.00000
           0.00000   0.00000  23.68999
Lengths:  23.68999  23.68999  23.68999
Angles:   90.00000  90.00000  90.00000
Rectangular boundary conditions

net charge:   0.00000000

component   0 (CO2) lambda:  0 occupancy:  1 (1.000000)
    net charge:   0.00000000 [e]

Amount of molecules per component :
-------------------------------------------------------------------------------
Component 0 (CO2)
    molecules:         2.000000e+02 molecules
    number density:    1.504304e-02 molec/A^3
    density:           1.099070e+03 kg/m^3

Total potential energy/kʙ       -3.110159e+05 [K]
-------------------------------------------------------------------------------
    external field VDW/kʙ        0.000000e+00 [K]
    external field Real/kʙ       0.000000e+00 [K]
    framework-molecule VDW/kʙ    0.000000e+00 [K]
    framework-molecule Real/kʙ   0.000000e+00 [K]
    molecule-molecule VDW/kʙ    -2.340314e+05 [K]
    molecule-molecule Real/kʙ   -6.024491e+04 [K]
    Van der Waals (Tail)/kʙ     -7.253421e+03 [K]
    Ewald Fourier/kʙ             8.666918e+03 [K]
    Ewald self/kʙ               -4.023739e+06 [K]
    Ewald exclusion/kʙ           4.005586e+06 [K]
    intra VDW/kʙ                 0.000000e+00 [K]
    intra Coulombic/kʙ           0.000000e+00 [K]
    polarization/kʙ              0.000000e+00 [K]
    dU/dlambda VDW/kʙ            0.000000e+00 [K]
    dU/dlambda Real/kʙ           0.000000e+00 [K]
    dU/dlambda Ewald/kʙ          0.000000e+00 [K]


Initialization: Current cycle: 800 out of 1000
===============================================================================

Box:      23.86331   0.00000   0.00000
           0.00000  23.86331   0.00000
           0.00000   0.00000  23.86331
Lengths:  23.86331  23.86331  23.86331
Angles:   90.00000  90.00000  90.00000
Rectangular boundary conditions

net charge:   0.00000000

component   0 (CO2) lambda:  0 occupancy:  1 (1.000000)
    net charge:   0.00000000 [e]

Amount of molecules per component :
-------------------------------------------------------------------------------
Component 0 (CO2)
    molecules:         2.000000e+02 molecules
    number density:    1.471763e-02 molec/A^3
    density:           1.075295e+03 kg/m^3

Total potential energy/kʙ       -3.141674e+05 [K]
-------------------------------------------------------------------------------
    external field VDW/kʙ        0.000000e+00 [K]
    external field Real/kʙ       0.000000e+00 [K]
    framework-molecule VDW/kʙ    0.000000e+00 [K]
    framework-molecule Real/kʙ   0.000000e+00 [K]
    molecule-molecule VDW/kʙ    -2.239275e+05 [K]
    molecule-molecule Real/kʙ   -7.221024e+04 [K]
    Van der Waals (Tail)/kʙ     -7.096516e+03 [K]
    Ewald Fourier/kʙ             7.219924e+03 [K]
    Ewald self/kʙ               -4.023739e+06 [K]
    Ewald exclusion/kʙ           4.005586e+06 [K]
    intra VDW/kʙ                 0.000000e+00 [K]
    intra Coulombic/kʙ           0.000000e+00 [K]
    polarization/kʙ              0.000000e+00 [K]
    dU/dlambda VDW/kʙ            0.000000e+00 [K]
    dU/dlambda Real/kʙ           0.000000e+00 [K]
    dU/dlambda Ewald/kʙ          0.000000e+00 [K]


Initialization: Current cycle: 900 out of 1000
===============================================================================

Box:      24.10734   0.00000   0.00000
           0.00000  24.10734   0.00000
           0.00000   0.00000  24.10734
Lengths:  24.10734  24.10734  24.10734
Angles:   90.00000  90.00000  90.00000
Rectangular boundary conditions

net charge:   0.00000000

component   0 (CO2) lambda:  0 occupancy:  1 (1.000000)
    net charge:   0.00000000 [e]

Amount of molecules per component :
-------------------------------------------------------------------------------
Component 0 (CO2)
    molecules:         2.000000e+02 molecules
    number density:    1.427519e-02 molec/A^3
    density:           1.042970e+03 kg/m^3

Total potential energy/kʙ       -3.004869e+05 [K]
-------------------------------------------------------------------------------
    external field VDW/kʙ        0.000000e+00 [K]
    external field Real/kʙ       0.000000e+00 [K]
    framework-molecule VDW/kʙ    0.000000e+00 [K]
    framework-molecule Real/kʙ   0.000000e+00 [K]
    molecule-molecule VDW/kʙ    -2.177694e+05 [K]
    molecule-molecule Real/kʙ   -6.562622e+04 [K]
    Van der Waals (Tail)/kʙ     -6.883182e+03 [K]
    Ewald Fourier/kʙ             7.945009e+03 [K]
    Ewald self/kʙ               -4.023739e+06 [K]
    Ewald exclusion/kʙ           4.005586e+06 [K]
    intra VDW/kʙ                 0.000000e+00 [K]
    intra Coulombic/kʙ           0.000000e+00 [K]
    polarization/kʙ              0.000000e+00 [K]
    dU/dlambda VDW/kʙ            0.000000e+00 [K]
    dU/dlambda Real/kʙ           0.000000e+00 [K]
    dU/dlambda Ewald/kʙ          0.000000e+00 [K]


Current cycle: 0 out of 5000
===============================================================================

Box:      24.06845   0.00000   0.00000  Average:  24.06845   0.00000   0.00000
           0.00000  24.06845   0.00000             0.00000  24.06845   0.00000
           0.00000   0.00000  24.06845             0.00000   0.00000  24.06845
Lengths:  24.06845  24.06845  24.06845  Average:  24.06845  24.06845  24.06845
Angles:   90.00000  90.00000  90.00000  Average:  90.00000  90.00000  90.00000
Rectangular boundary conditions

net charge:   0.00000000

component 0 (CO2) lambda:  0 occupancy:  1 (1.000000)
    net charge:   0.00000000 [e]

Amount of molecules per component :
-------------------------------------------------------------------------------
Component 0 (CO2)
    molecules:      2.000000e+02 molecules  (2.000000e+02 +/- 0.000000e+00)
    number density: 1.434450e-02 molec./A^3 (1.434450e-02 +/- 0.000000e+00)
    density:        1.048034e+03 kg/m^3     (1.048034e+03 +/- 0.000000e+00)

Average pressure tensor: 
-------------------------------------------------------------------------------
 4.9512e+02  0.0000e+00  0.0000e+00 +/- 0.0000e+00 0.0000e+00 0.0000e+00 [bar]
 0.0000e+00  4.9512e+02  0.0000e+00 +/- 0.0000e+00 0.0000e+00 0.0000e+00 [bar]
 0.0000e+00  0.0000e+00  4.9512e+02 +/- 0.0000e+00 0.0000e+00 0.0000e+00 [bar]
Ideal-gas pressure:   4.951184e+02 +/ 0.000000e+00 [bar]
Excess pressure:      0.000000e+00 +/ 0.000000e+00 [bar]
Pressure:             4.951184e+02 +/ 0.000000e+00 [bar]

Total potential energy/kʙ  -3.056379e+05 (-3.056379e+05 +/- 0.000000e+00) [K]
-------------------------------------------------------------------------------
ExternalField-molecule
    Van der Waals/kʙ        0.000000e+00 ( 0.000000e+00 +/- 0.000000e+00) [K]
Framework-molecule
    Van der Waals/kʙ        0.000000e+00 ( 0.000000e+00 +/- 0.000000e+00) [K]
    Van der Waals (Tail)/kʙ 0.000000e+00 ( 0.000000e+00 +/- 0.000000e+00) [K]
    Coulombic Real/kʙ       0.000000e+00 ( 0.000000e+00 +/- 0.000000e+00) [K]
    Coulombic Fourier/kʙ    0.000000e+00 ( 0.000000e+00 +/- 0.000000e+00) [K]
Molecule-molecule
    Van der Waals/kʙ       -2.203565e+05 (-2.203565e+05 +/- 0.000000e+00) [K]
    Van der Waals (Tail)/kʙ-6.916600e+03 (-6.916600e+03 +/- 0.000000e+00) [K]
    Coulombic Real/kʙ      -6.730285e+04 (-6.730285e+04 +/- 0.000000e+00) [K]
    Coulombic Fourier/kʙ   -1.106193e+04 (-1.106193e+04 +/- 0.000000e+00) [K]
    Molecule Intra/kʙ       0.000000e+00 ( 0.000000e+00 +/- 0.000000e+00) [K]

Current cycle: 100 out of 5000
===============================================================================

Box:      23.77522   0.00000   0.00000  Average:  23.90311   0.00000   0.00000
           0.00000  23.77522   0.00000             0.00000  23.90311   0.00000
           0.00000   0.00000  23.77522             0.00000   0.00000  23.90311
Lengths:  23.77522  23.77522  23.77522  Average:  23.90311  23.90311  23.90311
Angles:   90.00000  90.00000  90.00000  Average:  90.00000  90.00000  90.00000
Rectangular boundary conditions

net charge:   0.00000000

component 0 (CO2) lambda:  0 occupancy:  1 (1.000000)
    net charge:   0.00000000 [e]

Amount of molecules per component :
-------------------------------------------------------------------------------
Component 0 (CO2)
    molecules:      2.000000e+02 molecules  (2.000000e+02 +/- 0.000000e+00)
    number density: 1.488184e-02 molec./A^3 (1.464534e-02 +/- 0.000000e+00)
    density:        1.087293e+03 kg/m^3     (1.070014e+03 +/- 0.000000e+00)

Average pressure tensor: 
-------------------------------------------------------------------------------
 2.0287e+02 -6.5669e-01 -8.8400e+01 +/- 0.0000e+00 0.0000e+00 0.0000e+00 [bar]
-6.5669e-01  4.4146e+01 -8.8430e+01 +/- 0.0000e+00 0.0000e+00 0.0000e+00 [bar]
-8.8400e+01 -8.8430e+01  1.2632e+02 +/- 0.0000e+00 0.0000e+00 0.0000e+00 [bar]
Ideal-gas pressure:   5.055023e+02 +/ 0.000000e+00 [bar]
Excess pressure:     -3.810537e+02 +/ 0.000000e+00 [bar]
Pressure:             1.244487e+02 +/ 0.000000e+00 [bar]

Total potential energy/kʙ  -3.144875e+05 (-3.062439e+05 +/- 0.000000e+00) [K]
-------------------------------------------------------------------------------
ExternalField-molecule
    Van der Waals/kʙ        0.000000e+00 ( 0.000000e+00 +/- 0.000000e+00) [K]
Framework-molecule
    Van der Waals/kʙ        0.000000e+00 ( 0.000000e+00 +/- 0.000000e+00) [K]
    Van der Waals (Tail)/kʙ 0.000000e+00 ( 0.000000e+00 +/- 0.000000e+00) [K]
    Coulombic Real/kʙ       0.000000e+00 ( 0.000000e+00 +/- 0.000000e+00) [K]
    Coulombic Fourier/kʙ    0.000000e+00 ( 0.000000e+00 +/- 0.000000e+00) [K]
Molecule-molecule
    Van der Waals/kʙ       -2.262974e+05 (-2.217317e+05 +/- 0.000000e+00) [K]
    Van der Waals (Tail)/kʙ-7.175694e+03 (-7.045170e+03 +/- 0.000000e+00) [K]
    Coulombic Real/kʙ      -7.007161e+04 (-6.684649e+04 +/- 0.000000e+00) [K]
    Coulombic Fourier/kʙ   -1.094278e+04 (-1.062051e+04 +/- 0.000000e+00) [K]
    Molecule Intra/kʙ       0.000000e+00 ( 0.000000e+00 +/- 0.000000e+00) [K]

Current cycle: 200 out of 5000
===============================================================================

Box:      23.81058   0.00000   0.00000  Average:  23.85543   0.00000   0.00000
           0.00000  23.81058   0.00000             0.00000  23.85543   0.00000
           0.00000   0.00000  23.81058             0.00000   0.00000  23.85543
Lengths:  23.81058  23.81058  23.81058  Average:  23.85543  23.85543  23.85543
Angles:   90.00000  90.00000  90.00000  Average:  90.00000  90.00000  90.00000
Rectangular boundary conditions

net charge:   0.00000000

component 0 (CO2) lambda:  0 occupancy:  1 (1.000000)
    net charge:   0.00000000 [e]

Amount of molecules per component :
-------------------------------------------------------------------------------
Component 0 (CO2)
    molecules:      2.000000e+02 molecules  (2.000000e+02 +/- 0.000000e+00)
    number density: 1.481562e-02 molec./A^3 (1.473374e-02 +/- 0.000000e+00)
    density:        1.082454e+03 kg/m^3     (1.076472e+03 +/- 0.000000e+00)

Average pressure tensor: 
-------------------------------------------------------------------------------
 2.0599e+02  1.5557e+01  5.1375e+00 +/- 0.0000e+00 0.0000e+00 0.0000e+00 [bar]
 1.5557e+01  3.6702e+01 -5.7387e+00 +/- 0.0000e+00 0.0000e+00 0.0000e+00 [bar]
 5.1375e+00 -5.7387e+00  1.3506e+02 +/- 0.0000e+00 0.0000e+00 0.0000e+00 [bar]
Ideal-gas pressure:   5.085535e+02 +/ 0.000000e+00 [bar]
Excess pressure:     -3.826380e+02 +/ 0.000000e+00 [bar]
Pressure:             1.259156e+02 +/ 0.000000e+00 [bar]

Total potential energy/kʙ  -3.099600e+05 (-3.092704e+05 +/- 0.000000e+00) [K]
-------------------------------------------------------------------------------
ExternalField-molecule
    Van der Waals/kʙ        0.000000e+00 ( 0.000000e+00 +/- 0.000000e+00) [K]
Framework-molecule
    Van der Waals/kʙ        0.000000e+00 ( 0.000000e+00 +/- 0.000000e+00) [K]
    Van der Waals (Tail)/kʙ 0.000000e+00 ( 0.000000e+00 +/- 0.000000e+00) [K]
    Coulombic Real/kʙ       0.000000e+00 ( 0.000000e+00 +/- 0.000000e+00) [K]
    Coulombic Fourier/kʙ    0.000000e+00 ( 0.000000e+00 +/- 0.000000e+00) [K]
Molecule-molecule
    Van der Waals/kʙ       -2.228138e+05 (-2.224615e+05 +/- 0.000000e+00) [K]
    Van der Waals (Tail)/kʙ-7.143764e+03 (-7.088304e+03 +/- 0.000000e+00) [K]
    Coulombic Real/kʙ      -6.905149e+04 (-6.914676e+04 +/- 0.000000e+00) [K]
    Coulombic Fourier/kʙ   -1.095091e+04 (-1.057377e+04 +/- 0.000000e+00) [K]
    Molecule Intra/kʙ       0.000000e+00 ( 0.000000e+00 +/- 0.000000e+00) [K]

Current cycle: 300 out of 5000
===============================================================================

Box:      23.81571   0.00000   0.00000  Average:  23.80084   0.00000   0.00000
           0.00000  23.81571   0.00000             0.00000  23.80084   0.00000
           0.00000   0.00000  23.81571             0.00000   0.00000  23.80084
Lengths:  23.81571  23.81571  23.81571  Average:  23.80084  23.80084  23.80084
Angles:   90.00000  90.00000  90.00000  Average:  90.00000  90.00000  90.00000
Rectangular boundary conditions

net charge:   0.00000000

component 0 (CO2) lambda:  0 occupancy:  1 (1.000000)
    net charge:   0.00000000 [e]

Amount of molecules per component :
-------------------------------------------------------------------------------
Component 0 (CO2)
    molecules:      2.000000e+02 molecules  (2.000000e+02 +/- 0.000000e+00)
    number density: 1.480605e-02 molec./A^3 (1.483631e-02 +/- 0.000000e+00)
    density:        1.081755e+03 kg/m^3     (1.083966e+03 +/- 0.000000e+00)

Average pressure tensor: 
-------------------------------------------------------------------------------
 2.7472e+02  1.2007e+01  4.4874e+01 +/- 0.0000e+00 0.0000e+00 0.0000e+00 [bar]
 1.2007e+01  1.3260e+02 -3.1609e+01 +/- 0.0000e+00 0.0000e+00 0.0000e+00 [bar]
 4.4874e+01 -3.1609e+01  1.5685e+02 +/- 0.0000e+00 0.0000e+00 0.0000e+00 [bar]
Ideal-gas pressure:   5.120939e+02 +/ 0.000000e+00 [bar]
Excess pressure:     -3.240371e+02 +/ 0.000000e+00 [bar]
Pressure:             1.880568e+02 +/ 0.000000e+00 [bar]

Total potential energy/kʙ  -3.106152e+05 (-3.119694e+05 +/- 0.000000e+00) [K]
-------------------------------------------------------------------------------
ExternalField-molecule
    Van der Waals/kʙ        0.000000e+00 ( 0.000000e+00 +/- 0.000000e+00) [K]
Framework-molecule
    Van der Waals/kʙ        0.000000e+00 ( 0.000000e+00 +/- 0.000000e+00) [K]
    Van der Waals (Tail)/kʙ 0.000000e+00 ( 0.000000e+00 +/- 0.000000e+00) [K]
    Coulombic Real/kʙ       0.000000e+00 ( 0.000000e+00 +/- 0.000000e+00) [K]
    Coulombic Fourier/kʙ    0.000000e+00 ( 0.000000e+00 +/- 0.000000e+00) [K]
Molecule-molecule
    Van der Waals/kʙ       -2.265275e+05 (-2.241944e+05 +/- 0.000000e+00) [K]
    Van der Waals (Tail)/kʙ-7.139151e+03 (-7.141524e+03 +/- 0.000000e+00) [K]
    Coulombic Real/kʙ      -6.719816e+04 (-7.005512e+04 +/- 0.000000e+00) [K]
    Coulombic Fourier/kʙ   -9.750400e+03 (-1.057839e+04 +/- 0.000000e+00) [K]
    Molecule Intra/kʙ       0.000000e+00 ( 0.000000e+00 +/- 0.000000e+00) [K]

Current cycle: 400 out of 5000
===============================================================================

Box:      23.53405   0.00000   0.00000  Average:  23.76656   0.00000   0.00000
           0.00000  23.53405   0.00000             0.00000  23.76656   0.00000
           0.00000   0.00000  23.53405             0.00000   0.00000  23.76656
Lengths:  23.53405  23.53405  23.53405  Average:  23.76656  23.76656  23.76656
Angles:   90.00000  90.00000  90.00000  Average:  90.00000  90.00000  90.00000
Rectangular boundary conditions

net charge:   0.00000000

component 0 (CO2) lambda:  0 occupancy:  1 (1.000000)
    net charge:   0.00000000 [e]

Amount of molecules per component :
-------------------------------------------------------------------------------
Component 0 (CO2)
    molecules:      2.000000e+02 molecules  (2.000000e+02 +/- 0.000000e+00)
    number density: 1.534406e-02 molec./A^3 (1.490151e-02 +/- 0.000000e+00)
    density:        1.121063e+03 kg/m^3     (1.088730e+03 +/- 0.000000e+00)

Average pressure tensor: 
-------------------------------------------------------------------------------
 2.9142e+02  8.6986e+00  7.6214e+01 +/- 0.0000e+00 0.0000e+00 0.0000e+00 [bar]
 8.6986e+00  1.7949e+02  2.0825e+01 +/- 0.0000e+00 0.0000e+00 0.0000e+00 [bar]
 7.6214e+01  2.0825e+01  1.7876e+02 +/- 0.0000e+00 0.0000e+00 0.0000e+00 [bar]
Ideal-gas pressure:   5.143444e+02 +/ 0.000000e+00 [bar]
Excess pressure:     -2.977889e+02 +/ 0.000000e+00 [bar]
Pressure:             2.165555e+02 +/ 0.000000e+00 [bar]

Total potential energy/kʙ  -3.258910e+05 (-3.133887e+05 +/- 0.000000e+00) [K]
-------------------------------------------------------------------------------
ExternalField-molecule
    Van der Waals/kʙ        0.000000e+00 ( 0.000000e+00 +/- 0.000000e+00) [K]
Framework-molecule
    Van der Waals/kʙ        0.000000e+00 ( 0.000000e+00 +/- 0.000000e+00) [K]
    Van der Waals (Tail)/kʙ 0.000000e+00 ( 0.000000e+00 +/- 0.000000e+00) [K]
    Coulombic Real/kʙ       0.000000e+00 ( 0.000000e+00 +/- 0.000000e+00) [K]
    Coulombic Fourier/kʙ    0.000000e+00 ( 0.000000e+00 +/- 0.000000e+00) [K]
Molecule-molecule
    Van der Waals/kʙ       -2.344775e+05 (-2.252704e+05 +/- 0.000000e+00) [K]
    Van der Waals (Tail)/kʙ-7.398565e+03 (-7.185463e+03 +/- 0.000000e+00) [K]
    Coulombic Real/kʙ      -7.356827e+04 (-7.044972e+04 +/- 0.000000e+00) [K]
    Coulombic Fourier/kʙ   -1.044661e+04 (-1.048306e+04 +/- 0.000000e+00) [K]
    Molecule Intra/kʙ       0.000000e+00 ( 0.000000e+00 +/- 0.000000e+00) [K]

Current cycle: 500 out of 5000
===============================================================================

Box:      23.55990   0.00000   0.00000  Average:  23.71526   0.00000   0.00000
           0.00000  23.55990   0.00000             0.00000  23.71526   0.00000
           0.00000   0.00000  23.55990             0.00000   0.00000  23.71526
Lengths:  23.55990  23.55990  23.55990  Average:  23.71526  23.71526  23.71526
Angles:   90.00000  90.00000  90.00000  Average:  90.00000  90.00000  90.00000
Rectangular boundary conditions

net charge:   0.00000000

component 0 (CO2) lambda:  0 occupancy:  1 (1.000000)
    net charge:   0.00000000 [e]

Amount of molecules per component :
-------------------------------------------------------------------------------
Component 0 (CO2)
    molecules:      2.000000e+02 molecules  (2.000000e+02 +/- 0.000000e+00)
    number density: 1.529361e-02 molec./A^3 (1.499985e-02 +/- 0.000000e+00)
    density:        1.117377e+03 kg/m^3     (1.095915e+03 +/- 0.000000e+00)

Average pressure tensor: 
-------------------------------------------------------------------------------
 2.4772e+02  5.7908e+01  1.1301e+02 +/- 0.0000e+00 0.0000e+00 0.0000e+00 [bar]
 5.7908e+01  1.6788e+02  8.1256e+01 +/- 0.0000e+00 0.0000e+00 0.0000e+00 [bar]
 1.1301e+02  8.1256e+01  2.1879e+02 +/- 0.0000e+00 0.0000e+00 0.0000e+00 [bar]
Ideal-gas pressure:   5.177388e+02 +/ 0.000000e+00 [bar]
Excess pressure:     -3.062732e+02 +/ 0.000000e+00 [bar]
Pressure:             2.114656e+02 +/ 0.000000e+00 [bar]

Total potential energy/kʙ  -3.164683e+05 (-3.152205e+05 +/- 0.000000e+00) [K]
-------------------------------------------------------------------------------
ExternalField-molecule
    Van der Waals/kʙ        0.000000e+00 ( 0.000000e+00 +/- 0.000000e+00) [K]
Framework-molecule
    Van der Waals/kʙ        0.000000e+00 ( 0.000000e+00 +/- 0.000000e+00) [K]
    Van der Waals (Tail)/kʙ 0.000000e+00 ( 0.000000e+00 +/- 0.000000e+00) [K]
    Coulombic Real/kʙ       0.000000e+00 ( 0.000000e+00 +/- 0.000000e+00) [K]
    Coulombic Fourier/kʙ    0.000000e+00 ( 0.000000e+00 +/- 0.000000e+00) [K]
Molecule-molecule
    Van der Waals/kʙ       -2.321218e+05 (-2.271695e+05 +/- 0.000000e+00) [K]
    Van der Waals (Tail)/kʙ-7.374239e+03 (-7.231065e+03 +/- 0.000000e+00) [K]
    Coulombic Real/kʙ      -6.730541e+04 (-7.036960e+04 +/- 0.000000e+00) [K]
    Coulombic Fourier/kʙ   -9.666837e+03 (-1.045027e+04 +/- 0.000000e+00) [K]
    Molecule Intra/kʙ       0.000000e+00 ( 0.000000e+00 +/- 0.000000e+00) [K]

Current cycle: 600 out of 5000
===============================================================================

Box:      23.49405   0.00000   0.00000  Average:  23.70268   0.00000   0.00000
           0.00000  23.49405   0.00000             0.00000  23.70268   0.00000
           0.00000   0.00000  23.49405             0.00000   0.00000  23.70268
Lengths:  23.49405  23.49405  23.49405  Average:  23.70268  23.70268  23.70268
Angles:   90.00000  90.00000  90.00000  Average:  90.00000  90.00000  90.00000
Rectangular boundary conditions

net charge:   0.00000000

component 0 (CO2) lambda:  0 occupancy:  1 (1.000000)
    net charge:   0.00000000 [e]

Amount of molecules per component :
-------------------------------------------------------------------------------
Component 0 (CO2)
    molecules:      2.000000e+02 molecules  (2.000000e+02 +/- 0.000000e+00)
    number density: 1.542255e-02 molec./A^3 (1.502334e-02 +/- 0.000000e+00)
    density:        1.126798e+03 kg/m^3     (1.097631e+03 +/- 0.000000e+00)

Average pressure tensor: 
-------------------------------------------------------------------------------
 2.3013e+02  5.9960e+01  9.5790e+01 +/- 0.0000e+00 0.0000e+00 0.0000e+00 [bar]
 5.9960e+01  1.5373e+02  6.1839e+01 +/- 0.0000e+00 0.0000e+00 0.0000e+00 [bar]
 9.5790e+01  6.1839e+01  2.1110e+02 +/- 0.0000e+00 0.0000e+00 0.0000e+00 [bar]
Ideal-gas pressure:   5.185495e+02 +/ 0.000000e+00 [bar]
Excess pressure:     -3.202295e+02 +/ 0.000000e+00 [bar]
Pressure:             1.983200e+02 +/ 0.000000e+00 [bar]

Total potential energy/kʙ  -3.270752e+05 (-3.159785e+05 +/- 0.000000e+00) [K]
-------------------------------------------------------------------------------
ExternalField-molecule
    Van der Waals/kʙ        0.000000e+00 ( 0.000000e+00 +/- 0.000000e+00) [K]
Framework-molecule
    Van der Waals/kʙ        0.000000e+00 ( 0.000000e+00 +/- 0.000000e+00) [K]
    Van der Waals (Tail)/kʙ 0.000000e+00 ( 0.000000e+00 +/- 0.000000e+00) [K]
    Coulombic Real/kʙ       0.000000e+00 ( 0.000000e+00 +/- 0.000000e+00) [K]
    Coulombic Fourier/kʙ    0.000000e+00 ( 0.000000e+00 +/- 0.000000e+00) [K]
Molecule-molecule
    Van der Waals/kʙ       -2.330294e+05 (-2.277151e+05 +/- 0.000000e+00) [K]
    Van der Waals (Tail)/kʙ-7.436410e+03 (-7.242782e+03 +/- 0.000000e+00) [K]
    Coulombic Real/kʙ      -7.514607e+04 (-7.057724e+04 +/- 0.000000e+00) [K]
    Coulombic Fourier/kʙ   -1.146331e+04 (-1.044345e+04 +/- 0.000000e+00) [K]
    Molecule Intra/kʙ       0.000000e+00 ( 0.000000e+00 +/- 0.000000e+00) [K]

Current cycle: 700 out of 5000
===============================================================================

Box:      23.57950   0.00000   0.00000  Average:  23.70104   0.00000   0.00000
           0.00000  23.57950   0.00000             0.00000  23.70104   0.00000
           0.00000   0.00000  23.57950             0.00000   0.00000  23.70104
Lengths:  23.57950  23.57950  23.57950  Average:  23.70104  23.70104  23.70104
Angles:   90.00000  90.00000  90.00000  Average:  90.00000  90.00000  90.00000
Rectangular boundary conditions

net charge:   0.00000000

component 0 (CO2) lambda:  0 occupancy:  1 (1.000000)
    net charge:   0.00000000 [e]

Amount of molecules per component :
-------------------------------------------------------------------------------
Component 0 (CO2)
    molecules:      2.000000e+02 molecules  (2.000000e+02 +/- 0.000000e+00)
    number density: 1.525550e-02 molec./A^3 (1.502605e-02 +/- 0.000000e+00)
    density:        1.114593e+03 kg/m^3     (1.097829e+03 +/- 0.000000e+00)

Average pressure tensor: 
-------------------------------------------------------------------------------
 2.5979e+02  5.1821e+01  8.7919e+01 +/- 0.0000e+00 0.0000e+00 0.0000e+00 [bar]
 5.1821e+01  1.4291e+02  5.2727e+01 +/- 0.0000e+00 0.0000e+00 0.0000e+00 [bar]
 8.7919e+01  5.2727e+01  2.1049e+02 +/- 0.0000e+00 0.0000e+00 0.0000e+00 [bar]
Ideal-gas pressure:   5.186429e+02 +/ 0.000000e+00 [bar]
Excess pressure:     -3.142462e+02 +/ 0.000000e+00 [bar]
Pressure:             2.043967e+02 +/ 0.000000e+00 [bar]

Total potential energy/kʙ  -3.323327e+05 (-3.160774e+05 +/- 0.000000e+00) [K]
-------------------------------------------------------------------------------
ExternalField-molecule
    Van der Waals/kʙ        0.000000e+00 ( 0.000000e+00 +/- 0.000000e+00) [K]
Framework-molecule
    Van der Waals/kʙ        0.000000e+00 ( 0.000000e+00 +/- 0.000000e+00) [K]
    Van der Waals (Tail)/kʙ 0.000000e+00 ( 0.000000e+00 +/- 0.000000e+00) [K]
    Coulombic Real/kʙ       0.000000e+00 ( 0.000000e+00 +/- 0.000000e+00) [K]
    Coulombic Fourier/kʙ    0.000000e+00 ( 0.000000e+00 +/- 0.000000e+00) [K]
Molecule-molecule
    Van der Waals/kʙ       -2.357680e+05 (-2.276787e+05 +/- 0.000000e+00) [K]
    Van der Waals (Tail)/kʙ-7.355865e+03 (-7.244974e+03 +/- 0.000000e+00) [K]
    Coulombic Real/kʙ      -7.713977e+04 (-7.064490e+04 +/- 0.000000e+00) [K]
    Coulombic Fourier/kʙ   -1.206908e+04 (-1.050885e+04 +/- 0.000000e+00) [K]
    Molecule Intra/kʙ       0.000000e+00 ( 0.000000e+00 +/- 0.000000e+00) [K]

Current cycle: 800 out of 5000
===============================================================================

Box:      23.63663   0.00000   0.00000  Average:  23.67005   0.00000   0.00000
           0.00000  23.63663   0.00000             0.00000  23.67005   0.00000
           0.00000   0.00000  23.63663             0.00000   0.00000  23.67005
Lengths:  23.63663  23.63663  23.63663  Average:  23.67005  23.67005  23.67005
Angles:   90.00000  90.00000  90.00000  Average:  90.00000  90.00000  90.00000
Rectangular boundary conditions

net charge:   0.00000000

component 0 (CO2) lambda:  0 occupancy:  1 (1.000000)
    net charge:   0.00000000 [e]

Amount of molecules per component :
-------------------------------------------------------------------------------
Component 0 (CO2)
    molecules:      2.000000e+02 molecules  (2.000000e+02 +/- 0.000000e+00)
    number density: 1.514515e-02 molec./A^3 (1.508596e-02 +/- 0.000000e+00)
    density:        1.106530e+03 kg/m^3     (1.102206e+03 +/- 0.000000e+00)

Average pressure tensor: 
-------------------------------------------------------------------------------
 2.1521e+02  5.8025e+01  7.0704e+01 +/- 0.0000e+00 0.0000e+00 0.0000e+00 [bar]
 5.8025e+01  1.4451e+02  7.5545e+01 +/- 0.0000e+00 0.0000e+00 0.0000e+00 [bar]
 7.0704e+01  7.5545e+01  2.0312e+02 +/- 0.0000e+00 0.0000e+00 0.0000e+00 [bar]
Ideal-gas pressure:   5.207111e+02 +/ 0.000000e+00 [bar]
Excess pressure:     -3.330943e+02 +/ 0.000000e+00 [bar]
Pressure:             1.876168e+02 +/ 0.000000e+00 [bar]

Total potential energy/kʙ  -3.309518e+05 (-3.184465e+05 +/- 0.000000e+00) [K]
-------------------------------------------------------------------------------
ExternalField-molecule
    Van der Waals/kʙ        0.000000e+00 ( 0.000000e+00 +/- 0.000000e+00) [K]
Framework-molecule
    Van der Waals/kʙ        0.000000e+00 ( 0.000000e+00 +/- 0.000000e+00) [K]
    Van der Waals (Tail)/kʙ 0.000000e+00 ( 0.000000e+00 +/- 0.000000e+00) [K]
    Coulombic Real/kʙ       0.000000e+00 ( 0.000000e+00 +/- 0.000000e+00) [K]
    Coulombic Fourier/kʙ    0.000000e+00 ( 0.000000e+00 +/- 0.000000e+00) [K]
Molecule-molecule
    Van der Waals/kʙ       -2.339355e+05 (-2.287332e+05 +/- 0.000000e+00) [K]
    Van der Waals (Tail)/kʙ-7.302656e+03 (-7.269545e+03 +/- 0.000000e+00) [K]
    Coulombic Real/kʙ      -7.785735e+04 (-7.177124e+04 +/- 0.000000e+00) [K]
    Coulombic Fourier/kʙ   -1.185632e+04 (-1.067249e+04 +/- 0.000000e+00) [K]
    Molecule Intra/kʙ       0.000000e+00 ( 0.000000e+00 +/- 0.000000e+00) [K]

Current cycle: 900 out of 5000
===============================================================================

Box:      23.34016   0.00000   0.00000  Average:  23.64794   0.00000   0.00000
           0.00000  23.34016   0.00000             0.00000  23.64794   0.00000
           0.00000   0.00000  23.34016             0.00000   0.00000  23.64794
Lengths:  23.34016  23.34016  23.34016  Average:  23.64794  23.64794  23.64794
Angles:   90.00000  90.00000  90.00000  Average:  90.00000  90.00000  90.00000
Rectangular boundary conditions

net charge:   0.00000000

component 0 (CO2) lambda:  0 occupancy:  1 (1.000000)
    net charge:   0.00000000 [e]

Amount of molecules per component :
-------------------------------------------------------------------------------
Component 0 (CO2)
    molecules:      2.000000e+02 molecules  (2.000000e+02 +/- 0.000000e+00)
    number density: 1.572963e-02 molec./A^3 (1.512853e-02 +/- 0.000000e+00)
    density:        1.149233e+03 kg/m^3     (1.105316e+03 +/- 0.000000e+00)

Average pressure tensor: 
-------------------------------------------------------------------------------
 2.3559e+02  4.8600e+01  3.9062e+01 +/- 0.0000e+00 0.0000e+00 0.0000e+00 [bar]
 4.8600e+01  1.5949e+02  7.9484e+01 +/- 0.0000e+00 0.0000e+00 0.0000e+00 [bar]
 3.9062e+01  7.9484e+01  1.8375e+02 +/- 0.0000e+00 0.0000e+00 0.0000e+00 [bar]
Ideal-gas pressure:   5.221803e+02 +/ 0.000000e+00 [bar]
Excess pressure:     -3.292396e+02 +/ 0.000000e+00 [bar]
Pressure:             1.929407e+02 +/ 0.000000e+00 [bar]

Total potential energy/kʙ  -3.360395e+05 (-3.200036e+05 +/- 0.000000e+00) [K]
-------------------------------------------------------------------------------
ExternalField-molecule
    Van der Waals/kʙ        0.000000e+00 ( 0.000000e+00 +/- 0.000000e+00) [K]
Framework-molecule
    Van der Waals/kʙ        0.000000e+00 ( 0.000000e+00 +/- 0.000000e+00) [K]
    Van der Waals (Tail)/kʙ 0.000000e+00 ( 0.000000e+00 +/- 0.000000e+00) [K]
    Coulombic Real/kʙ       0.000000e+00 ( 0.000000e+00 +/- 0.000000e+00) [K]
    Coulombic Fourier/kʙ    0.000000e+00 ( 0.000000e+00 +/- 0.000000e+00) [K]
Molecule-molecule
    Van der Waals/kʙ       -2.366992e+05 (-2.294485e+05 +/- 0.000000e+00) [K]
    Van der Waals (Tail)/kʙ-7.584477e+03 (-7.295042e+03 +/- 0.000000e+00) [K]
    Coulombic Real/kʙ      -8.112279e+04 (-7.256399e+04 +/- 0.000000e+00) [K]
    Coulombic Fourier/kʙ   -1.063309e+04 (-1.069606e+04 +/- 0.000000e+00) [K]
    Molecule Intra/kʙ       0.000000e+00 ( 0.000000e+00 +/- 0.000000e+00) [K]

Current cycle: 1000 out of 5000
===============================================================================

Box:      23.53378   0.00000   0.00000  Average:  23.62390   0.00000   0.00000
           0.00000  23.53378   0.00000             0.00000  23.62390   0.00000
           0.00000   0.00000  23.53378             0.00000   0.00000  23.62390
Lengths:  23.53378  23.53378  23.53378  Average:  23.62390  23.62390  23.62390
Angles:   90.00000  90.00000  90.00000  Average:  90.00000  90.00000  90.00000
Rectangular boundary conditions

net charge:   0.00000000

component 0 (CO2) lambda:  0 occupancy:  1 (1.000000)
    net charge:   0.00000000 [e]

Amount of molecules per component :
-------------------------------------------------------------------------------
Component 0 (CO2)
    molecules:      2.000000e+02 molecules  (2.000000e+02 +/- 0.000000e+00)
    number density: 1.534458e-02 molec./A^3 (1.517525e-02 +/- 0.000000e+00)
    density:        1.121101e+03 kg/m^3     (1.108730e+03 +/- 0.000000e+00)

Average pressure tensor: 
-------------------------------------------------------------------------------
 2.3428e+02  6.5883e+01  3.8892e+01 +/- 0.0000e+00 0.0000e+00 0.0000e+00 [bar]
 6.5883e+01  1.4675e+02  9.0210e+01 +/- 0.0000e+00 0.0000e+00 0.0000e+00 [bar]
 3.8892e+01  9.0210e+01  1.6861e+02 +/- 0.0000e+00 0.0000e+00 0.0000e+00 [bar]
Ideal-gas pressure:   5.237930e+02 +/ 0.000000e+00 [bar]
Excess pressure:     -3.405769e+02 +/ 0.000000e+00 [bar]
Pressure:             1.832161e+02 +/ 0.000000e+00 [bar]

Total potential energy/kʙ  -3.212348e+05 (-3.210889e+05 +/- 0.000000e+00) [K]
-------------------------------------------------------------------------------
ExternalField-molecule
    Van der Waals/kʙ        0.000000e+00 ( 0.000000e+00 +/- 0.000000e+00) [K]
Framework-molecule
    Van der Waals/kʙ        0.000000e+00 ( 0.000000e+00 +/- 0.000000e+00) [K]
    Van der Waals (Tail)/kʙ 0.000000e+00 ( 0.000000e+00 +/- 0.000000e+00) [K]
    Coulombic Real/kʙ       0.000000e+00 ( 0.000000e+00 +/- 0.000000e+00) [K]
    Coulombic Fourier/kʙ    0.000000e+00 ( 0.000000e+00 +/- 0.000000e+00) [K]
Molecule-molecule
    Van der Waals/kʙ       -2.306027e+05 (-2.302650e+05 +/- 0.000000e+00) [K]
    Van der Waals (Tail)/kʙ-7.398815e+03 (-7.313572e+03 +/- 0.000000e+00) [K]
    Coulombic Real/kʙ      -7.147265e+04 (-7.276516e+04 +/- 0.000000e+00) [K]
    Coulombic Fourier/kʙ   -1.176072e+04 (-1.074516e+04 +/- 0.000000e+00) [K]
    Molecule Intra/kʙ       0.000000e+00 ( 0.000000e+00 +/- 0.000000e+00) [K]

Current cycle: 1100 out of 5000
===============================================================================

Box:      23.60566   0.00000   0.00000  Average:  23.61742   0.00000   0.00000
           0.00000  23.60566   0.00000             0.00000  23.61742   0.00000
           0.00000   0.00000  23.60566             0.00000   0.00000  23.61742
Lengths:  23.60566  23.60566  23.60566  Average:  23.61742  23.61742  23.61742
Angles:   90.00000  90.00000  90.00000  Average:  90.00000  90.00000  90.00000
Rectangular boundary conditions

net charge:   0.00000000

component 0 (CO2) lambda:  0 occupancy:  1 (1.000000)
    net charge:   0.00000000 [e]

Amount of molecules per component :
-------------------------------------------------------------------------------
Component 0 (CO2)
    molecules:      2.000000e+02 molecules  (2.000000e+02 +/- 0.000000e+00)
    number density: 1.520483e-02 molec./A^3 (1.518739e-02 +/- 0.000000e+00)
    density:        1.110891e+03 kg/m^3     (1.109616e+03 +/- 0.000000e+00)

Average pressure tensor: 
-------------------------------------------------------------------------------
 2.1664e+02  5.5088e+01  4.0155e+01 +/- 0.0000e+00 0.0000e+00 0.0000e+00 [bar]
 5.5088e+01  1.7499e+02  7.1295e+01 +/- 0.0000e+00 0.0000e+00 0.0000e+00 [bar]
 4.0155e+01  7.1295e+01  1.6254e+02 +/- 0.0000e+00 0.0000e+00 0.0000e+00 [bar]
Ideal-gas pressure:   5.242117e+02 +/ 0.000000e+00 [bar]
Excess pressure:     -3.394879e+02 +/ 0.000000e+00 [bar]
Pressure:             1.847238e+02 +/ 0.000000e+00 [bar]

Total potential energy/kʙ  -3.276276e+05 (-3.211829e+05 +/- 0.000000e+00) [K]
-------------------------------------------------------------------------------
ExternalField-molecule
    Van der Waals/kʙ        0.000000e+00 ( 0.000000e+00 +/- 0.000000e+00) [K]
Framework-molecule
    Van der Waals/kʙ        0.000000e+00 ( 0.000000e+00 +/- 0.000000e+00) [K]
    Van der Waals (Tail)/kʙ 0.000000e+00 ( 0.000000e+00 +/- 0.000000e+00) [K]
    Coulombic Real/kʙ       0.000000e+00 ( 0.000000e+00 +/- 0.000000e+00) [K]
    Coulombic Fourier/kʙ    0.000000e+00 ( 0.000000e+00 +/- 0.000000e+00) [K]
Molecule-molecule
    Van der Waals/kʙ       -2.352467e+05 (-2.304718e+05 +/- 0.000000e+00) [K]
    Van der Waals (Tail)/kʙ-7.331434e+03 (-7.318762e+03 +/- 0.000000e+00) [K]
    Coulombic Real/kʙ      -7.421273e+04 (-7.264883e+04 +/- 0.000000e+00) [K]
    Coulombic Fourier/kʙ   -1.083672e+04 (-1.074357e+04 +/- 0.000000e+00) [K]
    Molecule Intra/kʙ       0.000000e+00 ( 0.000000e+00 +/- 0.000000e+00) [K]

Current cycle: 1200 out of 5000
===============================================================================

Box:      23.29774   0.00000   0.00000  Average:  23.60045   0.00000   0.00000
           0.00000  23.29774   0.00000             0.00000  23.60045   0.00000
           0.00000   0.00000  23.29774             0.00000   0.00000  23.60045
Lengths:  23.29774  23.29774  23.29774  Average:  23.60045  23.60045  23.60045
Angles:   90.00000  90.00000  90.00000  Average:  90.00000  90.00000  90.00000
Rectangular boundary conditions

net charge:   0.00000000

component 0 (CO2) lambda:  0 occupancy:  1 (1.000000)
    net charge:   0.00000000 [e]

Amount of molecules per component :
-------------------------------------------------------------------------------
Component 0 (CO2)
    molecules:      2.000000e+02 molecules  (2.000000e+02 +/- 0.000000e+00)
    number density: 1.581572e-02 molec./A^3 (1.522034e-02 +/- 0.000000e+00)
    density:        1.155523e+03 kg/m^3     (1.112024e+03 +/- 0.000000e+00)

Average pressure tensor: 
-------------------------------------------------------------------------------
 2.0813e+02  4.5450e+01  5.7869e+01 +/- 0.0000e+00 0.0000e+00 0.0000e+00 [bar]
 4.5450e+01  1.7118e+02  8.7732e+01 +/- 0.0000e+00 0.0000e+00 0.0000e+00 [bar]
 5.7869e+01  8.7732e+01  1.7280e+02 +/- 0.0000e+00 0.0000e+00 0.0000e+00 [bar]
Ideal-gas pressure:   5.253493e+02 +/ 0.000000e+00 [bar]
Excess pressure:     -3.413121e+02 +/ 0.000000e+00 [bar]
Pressure:             1.840372e+02 +/ 0.000000e+00 [bar]

Total potential energy/kʙ  -3.367566e+05 (-3.220233e+05 +/- 0.000000e+00) [K]
-------------------------------------------------------------------------------
ExternalField-molecule
    Van der Waals/kʙ        0.000000e+00 ( 0.000000e+00 +/- 0.000000e+00) [K]
Framework-molecule
    Van der Waals/kʙ        0.000000e+00 ( 0.000000e+00 +/- 0.000000e+00) [K]
    Van der Waals (Tail)/kʙ 0.000000e+00 ( 0.000000e+00 +/- 0.000000e+00) [K]
    Coulombic Real/kʙ       0.000000e+00 ( 0.000000e+00 +/- 0.000000e+00) [K]
    Coulombic Fourier/kʙ    0.000000e+00 ( 0.000000e+00 +/- 0.000000e+00) [K]
Molecule-molecule
    Van der Waals/kʙ       -2.357348e+05 (-2.310011e+05 +/- 0.000000e+00) [K]
    Van der Waals (Tail)/kʙ-7.625989e+03 (-7.335187e+03 +/- 0.000000e+00) [K]
    Coulombic Real/kʙ      -8.243367e+04 (-7.293433e+04 +/- 0.000000e+00) [K]
    Coulombic Fourier/kʙ   -1.096211e+04 (-1.075276e+04 +/- 0.000000e+00) [K]
    Molecule Intra/kʙ       0.000000e+00 ( 0.000000e+00 +/- 0.000000e+00) [K]

Current cycle: 1300 out of 5000
===============================================================================

Box:      23.65860   0.00000   0.00000  Average:  23.59860   0.00000   0.00000
           0.00000  23.65860   0.00000             0.00000  23.59860   0.00000
           0.00000   0.00000  23.65860             0.00000   0.00000  23.59860
Lengths:  23.65860  23.65860  23.65860  Average:  23.59860  23.59860  23.59860
Angles:   90.00000  90.00000  90.00000  Average:  90.00000  90.00000  90.00000
Rectangular boundary conditions

net charge:   0.00000000

component 0 (CO2) lambda:  0 occupancy:  1 (1.000000)
    net charge:   0.00000000 [e]

Amount of molecules per component :
-------------------------------------------------------------------------------
Component 0 (CO2)
    molecules:      2.000000e+02 molecules  (2.000000e+02 +/- 0.000000e+00)
    number density: 1.510299e-02 molec./A^3 (1.522366e-02 +/- 0.000000e+00)
    density:        1.103451e+03 kg/m^3     (1.112267e+03 +/- 0.000000e+00)

Average pressure tensor: 
-------------------------------------------------------------------------------
 2.2050e+02  4.1137e+01  5.9211e+01 +/- 0.0000e+00 0.0000e+00 0.0000e+00 [bar]
 4.1137e+01  1.5361e+02  9.0937e+01 +/- 0.0000e+00 0.0000e+00 0.0000e+00 [bar]
 5.9211e+01  9.0937e+01  1.8006e+02 +/- 0.0000e+00 0.0000e+00 0.0000e+00 [bar]
Ideal-gas pressure:   5.254639e+02 +/ 0.000000e+00 [bar]
Excess pressure:     -3.407396e+02 +/ 0.000000e+00 [bar]
Pressure:             1.847243e+02 +/ 0.000000e+00 [bar]

Total potential energy/kʙ  -3.207664e+05 (-3.223058e+05 +/- 0.000000e+00) [K]
-------------------------------------------------------------------------------
ExternalField-molecule
    Van der Waals/kʙ        0.000000e+00 ( 0.000000e+00 +/- 0.000000e+00) [K]
Framework-molecule
    Van der Waals/kʙ        0.000000e+00 ( 0.000000e+00 +/- 0.000000e+00) [K]
    Van der Waals (Tail)/kʙ 0.000000e+00 ( 0.000000e+00 +/- 0.000000e+00) [K]
    Coulombic Real/kʙ       0.000000e+00 ( 0.000000e+00 +/- 0.000000e+00) [K]
    Coulombic Fourier/kʙ    0.000000e+00 ( 0.000000e+00 +/- 0.000000e+00) [K]
Molecule-molecule
    Van der Waals/kʙ       -2.318080e+05 (-2.311560e+05 +/- 0.000000e+00) [K]
    Van der Waals (Tail)/kʙ-7.282330e+03 (-7.335503e+03 +/- 0.000000e+00) [K]
    Coulombic Real/kʙ      -7.098985e+04 (-7.306752e+04 +/- 0.000000e+00) [K]
    Coulombic Fourier/kʙ   -1.068619e+04 (-1.074683e+04 +/- 0.000000e+00) [K]
    Molecule Intra/kʙ       0.000000e+00 ( 0.000000e+00 +/- 0.000000e+00) [K]

Current cycle: 1400 out of 5000
===============================================================================

Box:      23.66374   0.00000   0.00000  Average:  23.60403   0.00000   0.00000
           0.00000  23.66374   0.00000             0.00000  23.60403   0.00000
           0.00000   0.00000  23.66374             0.00000   0.00000  23.60403
Lengths:  23.66374  23.66374  23.66374  Average:  23.60403  23.60403  23.60403
Angles:   90.00000  90.00000  90.00000  Average:  90.00000  90.00000  90.00000
Rectangular boundary conditions

net charge:   0.00000000

component 0 (CO2) lambda:  0 occupancy:  1 (1.000000)
    net charge:   0.00000000 [e]

Amount of molecules per component :
-------------------------------------------------------------------------------
Component 0 (CO2)
    molecules:      2.000000e+02 molecules  (2.000000e+02 +/- 0.000000e+00)
    number density: 1.509314e-02 molec./A^3 (1.521297e-02 +/- 0.000000e+00)
    density:        1.102731e+03 kg/m^3     (1.111486e+03 +/- 0.000000e+00)

Average pressure tensor: 
-------------------------------------------------------------------------------
 2.1126e+02  3.7218e+01  5.0576e+01 +/- 0.0000e+00 0.0000e+00 0.0000e+00 [bar]
 3.7218e+01  1.6172e+02  8.0278e+01 +/- 0.0000e+00 0.0000e+00 0.0000e+00 [bar]
 5.0576e+01  8.0278e+01  1.7842e+02 +/- 0.0000e+00 0.0000e+00 0.0000e+00 [bar]
Ideal-gas pressure:   5.250949e+02 +/ 0.000000e+00 [bar]
Excess pressure:     -3.412971e+02 +/ 0.000000e+00 [bar]
Pressure:             1.837978e+02 +/ 0.000000e+00 [bar]

Total potential energy/kʙ  -3.149905e+05 (-3.220754e+05 +/- 0.000000e+00) [K]
-------------------------------------------------------------------------------
ExternalField-molecule
    Van der Waals/kʙ        0.000000e+00 ( 0.000000e+00 +/- 0.000000e+00) [K]
Framework-molecule
    Van der Waals/kʙ        0.000000e+00 ( 0.000000e+00 +/- 0.000000e+00) [K]
    Van der Waals (Tail)/kʙ 0.000000e+00 ( 0.000000e+00 +/- 0.000000e+00) [K]
    Coulombic Real/kʙ       0.000000e+00 ( 0.000000e+00 +/- 0.000000e+00) [K]
    Coulombic Fourier/kʙ    0.000000e+00 ( 0.000000e+00 +/- 0.000000e+00) [K]
Molecule-molecule
    Van der Waals/kʙ       -2.293937e+05 (-2.310204e+05 +/- 0.000000e+00) [K]
    Van der Waals (Tail)/kʙ-7.277579e+03 (-7.332468e+03 +/- 0.000000e+00) [K]
    Coulombic Real/kʙ      -6.781116e+04 (-7.295104e+04 +/- 0.000000e+00) [K]
    Coulombic Fourier/kʙ   -1.050804e+04 (-1.077152e+04 +/- 0.000000e+00) [K]
    Molecule Intra/kʙ       0.000000e+00 ( 0.000000e+00 +/- 0.000000e+00) [K]

Current cycle: 1500 out of 5000
===============================================================================

Box:      23.65783   0.00000   0.00000  Average:  23.60387   0.00000   0.00000
           0.00000  23.65783   0.00000             0.00000  23.60387   0.00000
           0.00000   0.00000  23.65783             0.00000   0.00000  23.60387
Lengths:  23.65783  23.65783  23.65783  Average:  23.60387  23.60387  23.60387
Angles:   90.00000  90.00000  90.00000  Average:  90.00000  90.00000  90.00000
Rectangular boundary conditions

net charge:   0.00000000

component 0 (CO2) lambda:  0 occupancy:  1 (1.000000)
    net charge:   0.00000000 [e]

Amount of molecules per component :
-------------------------------------------------------------------------------
Component 0 (CO2)
    molecules:      2.000000e+02 molecules  (2.000000e+02 +/- 0.000000e+00)
    number density: 1.510446e-02 molec./A^3 (1.521307e-02 +/- 0.000000e+00)
    density:        1.103558e+03 kg/m^3     (1.111493e+03 +/- 0.000000e+00)

Average pressure tensor: 
-------------------------------------------------------------------------------
 2.0545e+02  2.7983e+01  3.5961e+01 +/- 0.0000e+00 0.0000e+00 0.0000e+00 [bar]
 2.7983e+01  1.5508e+02  6.0607e+01 +/- 0.0000e+00 0.0000e+00 0.0000e+00 [bar]
 3.5961e+01  6.0607e+01  1.6342e+02 +/- 0.0000e+00 0.0000e+00 0.0000e+00 [bar]
Ideal-gas pressure:   5.250982e+02 +/ 0.000000e+00 [bar]
Excess pressure:     -3.504456e+02 +/ 0.000000e+00 [bar]
Pressure:             1.746526e+02 +/ 0.000000e+00 [bar]

Total potential energy/kʙ  -3.201611e+05 (-3.219513e+05 +/- 0.000000e+00) [K]
-------------------------------------------------------------------------------
ExternalField-molecule
    Van der Waals/kʙ        0.000000e+00 ( 0.000000e+00 +/- 0.000000e+00) [K]
Framework-molecule
    Van der Waals/kʙ        0.000000e+00 ( 0.000000e+00 +/- 0.000000e+00) [K]
    Van der Waals (Tail)/kʙ 0.000000e+00 ( 0.000000e+00 +/- 0.000000e+00) [K]
    Coulombic Real/kʙ       0.000000e+00 ( 0.000000e+00 +/- 0.000000e+00) [K]
    Coulombic Fourier/kʙ    0.000000e+00 ( 0.000000e+00 +/- 0.000000e+00) [K]
Molecule-molecule
    Van der Waals/kʙ       -2.342730e+05 (-2.311260e+05 +/- 0.000000e+00) [K]
    Van der Waals (Tail)/kʙ-7.283039e+03 (-7.331766e+03 +/- 0.000000e+00) [K]
    Coulombic Real/kʙ      -6.786178e+04 (-7.273861e+04 +/- 0.000000e+00) [K]
    Coulombic Fourier/kʙ   -1.074326e+04 (-1.075495e+04 +/- 0.000000e+00) [K]
    Molecule Intra/kʙ       0.000000e+00 ( 0.000000e+00 +/- 0.000000e+00) [K]

Current cycle: 1600 out of 5000
===============================================================================

Box:      23.68804   0.00000   0.00000  Average:  23.60842   0.00000   0.00000
           0.00000  23.68804   0.00000             0.00000  23.60842   0.00000
           0.00000   0.00000  23.68804             0.00000   0.00000  23.60842
Lengths:  23.68804  23.68804  23.68804  Average:  23.60842  23.60842  23.60842
Angles:   90.00000  90.00000  90.00000  Average:  90.00000  90.00000  90.00000
Rectangular boundary conditions

net charge:   0.00000000

component 0 (CO2) lambda:  0 occupancy:  1 (1.000000)
    net charge:   0.00000000 [e]

Amount of molecules per component :
-------------------------------------------------------------------------------
Component 0 (CO2)
    molecules:      2.000000e+02 molecules  (2.000000e+02 +/- 0.000000e+00)
    number density: 1.504675e-02 molec./A^3 (1.520413e-02 +/- 0.000000e+00)
    density:        1.099341e+03 kg/m^3     (1.110840e+03 +/- 0.000000e+00)

Average pressure tensor: 
-------------------------------------------------------------------------------
 2.0040e+02  2.0822e+01  1.1734e+01 +/- 0.0000e+00 0.0000e+00 0.0000e+00 [bar]
 2.0822e+01  1.6065e+02  5.2825e+01 +/- 0.0000e+00 0.0000e+00 0.0000e+00 [bar]
 1.1734e+01  5.2825e+01  1.7850e+02 +/- 0.0000e+00 0.0000e+00 0.0000e+00 [bar]
Ideal-gas pressure:   5.247896e+02 +/ 0.000000e+00 [bar]
Excess pressure:     -3.449413e+02 +/ 0.000000e+00 [bar]
Pressure:             1.798483e+02 +/ 0.000000e+00 [bar]

Total potential energy/kʙ  -3.142213e+05 (-3.216025e+05 +/- 0.000000e+00) [K]
-------------------------------------------------------------------------------
ExternalField-molecule
    Van der Waals/kʙ        0.000000e+00 ( 0.000000e+00 +/- 0.000000e+00) [K]
Framework-molecule
    Van der Waals/kʙ        0.000000e+00 ( 0.000000e+00 +/- 0.000000e+00) [K]
    Van der Waals (Tail)/kʙ 0.000000e+00 ( 0.000000e+00 +/- 0.000000e+00) [K]
    Coulombic Real/kʙ       0.000000e+00 ( 0.000000e+00 +/- 0.000000e+00) [K]
    Coulombic Fourier/kʙ    0.000000e+00 ( 0.000000e+00 +/- 0.000000e+00) [K]
Molecule-molecule
    Van der Waals/kʙ       -2.268414e+05 (-2.308085e+05 +/- 0.000000e+00) [K]
    Van der Waals (Tail)/kʙ-7.255208e+03 (-7.328771e+03 +/- 0.000000e+00) [K]
    Coulombic Real/kʙ      -6.938845e+04 (-7.270760e+04 +/- 0.000000e+00) [K]
    Coulombic Fourier/kʙ   -1.073623e+04 (-1.075767e+04 +/- 0.000000e+00) [K]
    Molecule Intra/kʙ       0.000000e+00 ( 0.000000e+00 +/- 0.000000e+00) [K]

Current cycle: 1700 out of 5000
===============================================================================

Box:      23.59944   0.00000   0.00000  Average:  23.62041   0.00000   0.00000
           0.00000  23.59944   0.00000             0.00000  23.62041   0.00000
           0.00000   0.00000  23.59944             0.00000   0.00000  23.62041
Lengths:  23.59944  23.59944  23.59944  Average:  23.62041  23.62041  23.62041
Angles:   90.00000  90.00000  90.00000  Average:  90.00000  90.00000  90.00000
Rectangular boundary conditions

net charge:   0.00000000

component 0 (CO2) lambda:  0 occupancy:  1 (1.000000)
    net charge:   0.00000000 [e]

Amount of molecules per component :
-------------------------------------------------------------------------------
Component 0 (CO2)
    molecules:      2.000000e+02 molecules  (2.000000e+02 +/- 0.000000e+00)
    number density: 1.521685e-02 molec./A^3 (1.518120e-02 +/- 0.000000e+00)
    density:        1.111769e+03 kg/m^3     (1.109165e+03 +/- 0.000000e+00)

Average pressure tensor: 
-------------------------------------------------------------------------------
 1.8594e+02  2.4303e+01  1.2774e+01 +/- 0.0000e+00 0.0000e+00 0.0000e+00 [bar]
 2.4303e+01  1.4916e+02  3.9987e+01 +/- 0.0000e+00 0.0000e+00 0.0000e+00 [bar]
 1.2774e+01  3.9987e+01  1.9849e+02 +/- 0.0000e+00 0.0000e+00 0.0000e+00 [bar]
Ideal-gas pressure:   5.239983e+02 +/ 0.000000e+00 [bar]
Excess pressure:     -3.461363e+02 +/ 0.000000e+00 [bar]
Pressure:             1.778620e+02 +/ 0.000000e+00 [bar]

Total potential energy/kʙ  -3.270530e+05 (-3.210754e+05 +/- 0.000000e+00) [K]
-------------------------------------------------------------------------------
ExternalField-molecule
    Van der Waals/kʙ        0.000000e+00 ( 0.000000e+00 +/- 0.000000e+00) [K]
Framework-molecule
    Van der Waals/kʙ        0.000000e+00 ( 0.000000e+00 +/- 0.000000e+00) [K]
    Van der Waals (Tail)/kʙ 0.000000e+00 ( 0.000000e+00 +/- 0.000000e+00) [K]
    Coulombic Real/kʙ       0.000000e+00 ( 0.000000e+00 +/- 0.000000e+00) [K]
    Coulombic Fourier/kʙ    0.000000e+00 ( 0.000000e+00 +/- 0.000000e+00) [K]
Molecule-molecule
    Van der Waals/kʙ       -2.265764e+05 (-2.303141e+05 +/- 0.000000e+00) [K]
    Van der Waals (Tail)/kʙ-7.337231e+03 (-7.316609e+03 +/- 0.000000e+00) [K]
    Coulombic Real/kʙ      -8.205848e+04 (-7.269431e+04 +/- 0.000000e+00) [K]
    Coulombic Fourier/kʙ   -1.108092e+04 (-1.075034e+04 +/- 0.000000e+00) [K]
    Molecule Intra/kʙ       0.000000e+00 ( 0.000000e+00 +/- 0.000000e+00) [K]

Current cycle: 1800 out of 5000
===============================================================================

Box:      23.73679   0.00000   0.00000  Average:  23.62691   0.00000   0.00000
           0.00000  23.73679   0.00000             0.00000  23.62691   0.00000
           0.00000   0.00000  23.73679             0.00000   0.00000  23.62691
Lengths:  23.73679  23.73679  23.73679  Average:  23.62691  23.62691  23.62691
Angles:   90.00000  90.00000  90.00000  Average:  90.00000  90.00000  90.00000
Rectangular boundary conditions

net charge:   0.00000000

component 0 (CO2) lambda:  0 occupancy:  1 (1.000000)
    net charge:   0.00000000 [e]

Amount of molecules per component :
-------------------------------------------------------------------------------
Component 0 (CO2)
    molecules:      2.000000e+02 molecules  (2.000000e+02 +/- 0.000000e+00)
    number density: 1.495423e-02 molec./A^3 (1.516864e-02 +/- 0.000000e+00)
    density:        1.092582e+03 kg/m^3     (1.108247e+03 +/- 0.000000e+00)

Average pressure tensor: 
-------------------------------------------------------------------------------
 1.9754e+02  2.9760e+01  1.3246e+01 +/- 0.0000e+00 0.0000e+00 0.0000e+00 [bar]
 2.9760e+01  1.5027e+02  3.0355e+01 +/- 0.0000e+00 0.0000e+00 0.0000e+00 [bar]
 1.3246e+01  3.0355e+01  2.2352e+02 +/- 0.0000e+00 0.0000e+00 0.0000e+00 [bar]
Ideal-gas pressure:   5.235647e+02 +/ 0.000000e+00 [bar]
Excess pressure:     -3.331212e+02 +/ 0.000000e+00 [bar]
Pressure:             1.904436e+02 +/ 0.000000e+00 [bar]

Total potential energy/kʙ  -3.111214e+05 (-3.206794e+05 +/- 0.000000e+00) [K]
-------------------------------------------------------------------------------
ExternalField-molecule
    Van der Waals/kʙ        0.000000e+00 ( 0.000000e+00 +/- 0.000000e+00) [K]
Framework-molecule
    Van der Waals/kʙ        0.000000e+00 ( 0.000000e+00 +/- 0.000000e+00) [K]
    Van der Waals (Tail)/kʙ 0.000000e+00 ( 0.000000e+00 +/- 0.000000e+00) [K]
    Coulombic Real/kʙ       0.000000e+00 ( 0.000000e+00 +/- 0.000000e+00) [K]
    Coulombic Fourier/kʙ    0.000000e+00 ( 0.000000e+00 +/- 0.000000e+00) [K]
Molecule-molecule
    Van der Waals/kʙ       -2.291311e+05 (-2.299651e+05 +/- 0.000000e+00) [K]
    Van der Waals (Tail)/kʙ-7.210600e+03 (-7.311409e+03 +/- 0.000000e+00) [K]
    Coulombic Real/kʙ      -6.477672e+04 (-7.264765e+04 +/- 0.000000e+00) [K]
    Coulombic Fourier/kʙ   -1.000297e+04 (-1.075522e+04 +/- 0.000000e+00) [K]
    Molecule Intra/kʙ       0.000000e+00 ( 0.000000e+00 +/- 0.000000e+00) [K]

Current cycle: 1900 out of 5000
===============================================================================

Box:      23.81242   0.00000   0.00000  Average:  23.62808   0.00000   0.00000
           0.00000  23.81242   0.00000             0.00000  23.62808   0.00000
           0.00000   0.00000  23.81242             0.00000   0.00000  23.62808
Lengths:  23.81242  23.81242  23.81242  Average:  23.62808  23.62808  23.62808
Angles:   90.00000  90.00000  90.00000  Average:  90.00000  90.00000  90.00000
Rectangular boundary conditions

net charge:   0.00000000

component 0 (CO2) lambda:  0 occupancy:  1 (1.000000)
    net charge:   0.00000000 [e]

Amount of molecules per component :
-------------------------------------------------------------------------------
Component 0 (CO2)
    molecules:      2.000000e+02 molecules  (2.000000e+02 +/- 0.000000e+00)
    number density: 1.481219e-02 molec./A^3 (1.516623e-02 +/- 0.000000e+00)
    density:        1.082204e+03 kg/m^3     (1.108071e+03 +/- 0.000000e+00)

Average pressure tensor: 
-------------------------------------------------------------------------------
 2.0173e+02  3.4306e+01 -5.2136e+00 +/- 0.0000e+00 0.0000e+00 0.0000e+00 [bar]
 3.4306e+01  1.5805e+02  2.8239e+01 +/- 0.0000e+00 0.0000e+00 0.0000e+00 [bar]
-5.2136e+00  2.8239e+01  2.1779e+02 +/- 0.0000e+00 0.0000e+00 0.0000e+00 [bar]
Ideal-gas pressure:   5.234814e+02 +/ 0.000000e+00 [bar]
Excess pressure:     -3.309599e+02 +/ 0.000000e+00 [bar]
Pressure:             1.925215e+02 +/ 0.000000e+00 [bar]

Total potential energy/kʙ  -3.180397e+05 (-3.205541e+05 +/- 0.000000e+00) [K]
-------------------------------------------------------------------------------
ExternalField-molecule
    Van der Waals/kʙ        0.000000e+00 ( 0.000000e+00 +/- 0.000000e+00) [K]
Framework-molecule
    Van der Waals/kʙ        0.000000e+00 ( 0.000000e+00 +/- 0.000000e+00) [K]
    Van der Waals (Tail)/kʙ 0.000000e+00 ( 0.000000e+00 +/- 0.000000e+00) [K]
    Coulombic Real/kʙ       0.000000e+00 ( 0.000000e+00 +/- 0.000000e+00) [K]
    Coulombic Fourier/kʙ    0.000000e+00 ( 0.000000e+00 +/- 0.000000e+00) [K]
Molecule-molecule
    Van der Waals/kʙ       -2.322131e+05 (-2.299235e+05 +/- 0.000000e+00) [K]
    Van der Waals (Tail)/kʙ-7.142111e+03 (-7.310410e+03 +/- 0.000000e+00) [K]
    Coulombic Real/kʙ      -6.791698e+04 (-7.258210e+04 +/- 0.000000e+00) [K]
    Coulombic Fourier/kʙ   -1.076751e+04 (-1.073817e+04 +/- 0.000000e+00) [K]
    Molecule Intra/kʙ       0.000000e+00 ( 0.000000e+00 +/- 0.000000e+00) [K]

Current cycle: 2000 out of 5000
===============================================================================

Box:      23.79659   0.00000   0.00000  Average:  23.63714   0.00000   0.00000
           0.00000  23.79659   0.00000             0.00000  23.63714   0.00000
           0.00000   0.00000  23.79659             0.00000   0.00000  23.63714
Lengths:  23.79659  23.79659  23.79659  Average:  23.63714  23.63714  23.63714
Angles:   90.00000  90.00000  90.00000  Average:  90.00000  90.00000  90.00000
Rectangular boundary conditions

net charge:   0.00000000

component 0 (CO2) lambda:  0 occupancy:  1 (1.000000)
    net charge:   0.00000000 [e]

Amount of molecules per component :
-------------------------------------------------------------------------------
Component 0 (CO2)
    molecules:      2.000000e+02 molecules  (2.000000e+02 +/- 0.000000e+00)
    number density: 1.484178e-02 molec./A^3 (1.514891e-02 +/- 0.000000e+00)
    density:        1.084366e+03 kg/m^3     (1.106805e+03 +/- 0.000000e+00)

Average pressure tensor: 
-------------------------------------------------------------------------------
 1.8826e+02  3.4800e+01 -1.4076e+01 +/- 0.0000e+00 0.0000e+00 0.0000e+00 [bar]
 3.4800e+01  1.5017e+02  3.2042e+01 +/- 0.0000e+00 0.0000e+00 0.0000e+00 [bar]
-1.4076e+01  3.2042e+01  2.0191e+02 +/- 0.0000e+00 0.0000e+00 0.0000e+00 [bar]
Ideal-gas pressure:   5.228838e+02 +/ 0.000000e+00 [bar]
Excess pressure:     -3.427693e+02 +/ 0.000000e+00 [bar]
Pressure:             1.801144e+02 +/ 0.000000e+00 [bar]

Total potential energy/kʙ  -3.099424e+05 (-3.203422e+05 +/- 0.000000e+00) [K]
-------------------------------------------------------------------------------
ExternalField-molecule
    Van der Waals/kʙ        0.000000e+00 ( 0.000000e+00 +/- 0.000000e+00) [K]
Framework-molecule
    Van der Waals/kʙ        0.000000e+00 ( 0.000000e+00 +/- 0.000000e+00) [K]
    Van der Waals (Tail)/kʙ 0.000000e+00 ( 0.000000e+00 +/- 0.000000e+00) [K]
    Coulombic Real/kʙ       0.000000e+00 ( 0.000000e+00 +/- 0.000000e+00) [K]
    Coulombic Fourier/kʙ    0.000000e+00 ( 0.000000e+00 +/- 0.000000e+00) [K]
Molecule-molecule
    Van der Waals/kʙ       -2.194880e+05 (-2.296820e+05 +/- 0.000000e+00) [K]
    Van der Waals (Tail)/kʙ-7.156377e+03 (-7.301746e+03 +/- 0.000000e+00) [K]
    Coulombic Real/kʙ      -7.294123e+04 (-7.264285e+04 +/- 0.000000e+00) [K]
    Coulombic Fourier/kʙ   -1.035684e+04 (-1.071554e+04 +/- 0.000000e+00) [K]
    Molecule Intra/kʙ       0.000000e+00 ( 0.000000e+00 +/- 0.000000e+00) [K]

Current cycle: 2100 out of 5000
===============================================================================

Box:      23.90697   0.00000   0.00000  Average:  23.64921   0.00000   0.00000
           0.00000  23.90697   0.00000             0.00000  23.64921   0.00000
           0.00000   0.00000  23.90697             0.00000   0.00000  23.64921
Lengths:  23.90697  23.90697  23.90697  Average:  23.64921  23.64921  23.64921
Angles:   90.00000  90.00000  90.00000  Average:  90.00000  90.00000  90.00000
Rectangular boundary conditions

net charge:   0.00000000

component 0 (CO2) lambda:  0 occupancy:  1 (1.000000)
    net charge:   0.00000000 [e]

Amount of molecules per component :
-------------------------------------------------------------------------------
Component 0 (CO2)
    molecules:      2.000000e+02 molecules  (2.000000e+02 +/- 0.000000e+00)
    number density: 1.463714e-02 molec./A^3 (1.512604e-02 +/- 0.000000e+00)
    density:        1.069415e+03 kg/m^3     (1.105134e+03 +/- 0.000000e+00)

Average pressure tensor: 
-------------------------------------------------------------------------------
 1.8190e+02  2.9865e+01 -1.0400e+01 +/- 0.0000e+00 0.0000e+00 0.0000e+00 [bar]
 2.9865e+01  1.5681e+02  4.1356e+01 +/- 0.0000e+00 0.0000e+00 0.0000e+00 [bar]
-1.0400e+01  4.1356e+01  1.9834e+02 +/- 0.0000e+00 0.0000e+00 0.0000e+00 [bar]
Ideal-gas pressure:   5.220942e+02 +/ 0.000000e+00 [bar]
Excess pressure:     -3.430765e+02 +/ 0.000000e+00 [bar]
Pressure:             1.790177e+02 +/ 0.000000e+00 [bar]

Total potential energy/kʙ  -3.101232e+05 (-3.198795e+05 +/- 0.000000e+00) [K]
-------------------------------------------------------------------------------
ExternalField-molecule
    Van der Waals/kʙ        0.000000e+00 ( 0.000000e+00 +/- 0.000000e+00) [K]
Framework-molecule
    Van der Waals/kʙ        0.000000e+00 ( 0.000000e+00 +/- 0.000000e+00) [K]
    Van der Waals (Tail)/kʙ 0.000000e+00 ( 0.000000e+00 +/- 0.000000e+00) [K]
[...]
    Coulombic Fourier/kʙ    0.000000e+00 ( 0.000000e+00 +/- 0.000000e+00) [K]
Molecule-molecule
    Van der Waals/kʙ       -2.321468e+05 (-2.272219e+05 +/- 3.150988e+03) [K]
    Van der Waals (Tail)/kʙ-7.433564e+03 (-7.224823e+03 +/- 9.473911e+01) [K]
    Coulombic Real/kʙ      -7.667309e+04 (-7.202196e+04 +/- 1.393810e+03) [K]
    Coulombic Fourier/kʙ   -1.089830e+04 (-1.055695e+04 +/- 3.003359e+02) [K]
    Molecule Intra/kʙ       0.000000e+00 ( 0.000000e+00 +/- 0.000000e+00) [K]

Current cycle: 4700 out of 5000
===============================================================================

Box:      23.30654   0.00000   0.00000  Average:  23.71625   0.00000   0.00000
           0.00000  23.30654   0.00000             0.00000  23.71625   0.00000
           0.00000   0.00000  23.30654             0.00000   0.00000  23.71625
Lengths:  23.30654  23.30654  23.30654  Average:  23.71625  23.71625  23.71625
Angles:   90.00000  90.00000  90.00000  Average:  90.00000  90.00000  90.00000
Rectangular boundary conditions

net charge:   0.00000000

component 0 (CO2) lambda:  0 occupancy:  1 (1.000000)
    net charge:   0.00000000 [e]

Amount of molecules per component :
-------------------------------------------------------------------------------
Component 0 (CO2)
    molecules:      2.000000e+02 molecules  (2.000000e+02 +/- 0.000000e+00)
    number density: 1.579779e-02 molec./A^3 (1.499839e-02 +/- 1.893080e-04)
    density:        1.154214e+03 kg/m^3     (1.095808e+03 +/- 1.383116e+01)

Average pressure tensor: 
-------------------------------------------------------------------------------
 1.8428e+02  2.4911e+01 -6.3321e+00 +/- 5.9507e+01 8.1662e+01 5.3712e+01 [bar]
 2.4911e+01  1.6005e+02  7.4043e+00 +/- 8.1662e+01 6.0325e+01 7.3198e+01 [bar]
-6.3321e+00  7.4043e+00  1.6753e+02 +/- 5.3712e+01 7.3198e+01 7.4860e+01 [bar]
Ideal-gas pressure:   5.176884e+02 +/ 6.534202e+00 [bar]
Excess pressure:     -3.470703e+02 +/ 9.636842e+00 [bar]
Pressure:             1.706180e+02 +/ 1.534365e+01 [bar]

Total potential energy/kʙ  -3.355337e+05 (-3.172470e+05 +/- 3.791773e+03) [K]
-------------------------------------------------------------------------------
ExternalField-molecule
    Van der Waals/kʙ        0.000000e+00 ( 0.000000e+00 +/- 0.000000e+00) [K]
Framework-molecule
    Van der Waals/kʙ        0.000000e+00 ( 0.000000e+00 +/- 0.000000e+00) [K]
    Van der Waals (Tail)/kʙ 0.000000e+00 ( 0.000000e+00 +/- 0.000000e+00) [K]
    Coulombic Real/kʙ       0.000000e+00 ( 0.000000e+00 +/- 0.000000e+00) [K]
    Coulombic Fourier/kʙ    0.000000e+00 ( 0.000000e+00 +/- 0.000000e+00) [K]
Molecule-molecule
    Van der Waals/kʙ       -2.404844e+05 (-2.274110e+05 +/- 3.023626e+03) [K]
    Van der Waals (Tail)/kʙ-7.617346e+03 (-7.229394e+03 +/- 9.201014e+01) [K]
    Coulombic Real/kʙ      -7.589412e+04 (-7.203714e+04 +/- 1.196878e+03) [K]
    Coulombic Fourier/kʙ   -1.153784e+04 (-1.056947e+04 +/- 2.277879e+02) [K]
    Molecule Intra/kʙ       0.000000e+00 ( 0.000000e+00 +/- 0.000000e+00) [K]

Current cycle: 4800 out of 5000
===============================================================================

Box:      23.53294   0.00000   0.00000  Average:  23.71281   0.00000   0.00000
           0.00000  23.53294   0.00000             0.00000  23.71281   0.00000
           0.00000   0.00000  23.53294             0.00000   0.00000  23.71281
Lengths:  23.53294  23.53294  23.53294  Average:  23.71281  23.71281  23.71281
Angles:   90.00000  90.00000  90.00000  Average:  90.00000  90.00000  90.00000
Rectangular boundary conditions

net charge:   0.00000000

component 0 (CO2) lambda:  0 occupancy:  1 (1.000000)
    net charge:   0.00000000 [e]

Amount of molecules per component :
-------------------------------------------------------------------------------
Component 0 (CO2)
    molecules:      2.000000e+02 molecules  (2.000000e+02 +/- 0.000000e+00)
    number density: 1.534622e-02 molec./A^3 (1.500495e-02 +/- 1.887144e-04)
    density:        1.121221e+03 kg/m^3     (1.096287e+03 +/- 1.378780e+01)

Average pressure tensor: 
-------------------------------------------------------------------------------
 1.8598e+02  2.2297e+01 -6.7453e+00 +/- 6.0425e+01 7.4953e+01 5.3271e+01 [bar]
 2.2297e+01  1.7393e+02  7.2296e+00 +/- 7.4953e+01 8.5066e+01 7.3188e+01 [bar]
-6.7453e+00  7.2296e+00  1.6183e+02 +/- 5.3271e+01 7.3188e+01 8.4476e+01 [bar]
Ideal-gas pressure:   5.179148e+02 +/ 6.513715e+00 [bar]
Excess pressure:     -3.440001e+02 +/ 1.588408e+01 [bar]
Pressure:             1.739147e+02 +/ 2.011323e+01 [bar]

Total potential energy/kʙ  -3.217143e+05 (-3.174428e+05 +/- 3.592674e+03) [K]
-------------------------------------------------------------------------------
ExternalField-molecule
    Van der Waals/kʙ        0.000000e+00 ( 0.000000e+00 +/- 0.000000e+00) [K]
Framework-molecule
    Van der Waals/kʙ        0.000000e+00 ( 0.000000e+00 +/- 0.000000e+00) [K]
    Van der Waals (Tail)/kʙ 0.000000e+00 ( 0.000000e+00 +/- 0.000000e+00) [K]
    Coulombic Real/kʙ       0.000000e+00 ( 0.000000e+00 +/- 0.000000e+00) [K]
    Coulombic Fourier/kʙ    0.000000e+00 ( 0.000000e+00 +/- 0.000000e+00) [K]
Molecule-molecule
    Van der Waals/kʙ       -2.283939e+05 (-2.274807e+05 +/- 3.027193e+03) [K]
    Van der Waals (Tail)/kʙ-7.399608e+03 (-7.233174e+03 +/- 9.249946e+01) [K]
    Coulombic Real/kʙ      -7.582379e+04 (-7.215095e+04 +/- 7.991937e+02) [K]
    Coulombic Fourier/kʙ   -1.009699e+04 (-1.057792e+04 +/- 1.878639e+02) [K]
    Molecule Intra/kʙ       0.000000e+00 ( 0.000000e+00 +/- 0.000000e+00) [K]

Current cycle: 4900 out of 5000
===============================================================================

Box:      23.99569   0.00000   0.00000  Average:  23.71163   0.00000   0.00000
           0.00000  23.99569   0.00000             0.00000  23.71163   0.00000
           0.00000   0.00000  23.99569             0.00000   0.00000  23.71163
Lengths:  23.99569  23.99569  23.99569  Average:  23.71163  23.71163  23.71163
Angles:   90.00000  90.00000  90.00000  Average:  90.00000  90.00000  90.00000
Rectangular boundary conditions

net charge:   0.00000000

component 0 (CO2) lambda:  0 occupancy:  1 (1.000000)
    net charge:   0.00000000 [e]

Amount of molecules per component :
-------------------------------------------------------------------------------
Component 0 (CO2)
    molecules:      2.000000e+02 molecules  (2.000000e+02 +/- 0.000000e+00)
    number density: 1.447539e-02 molec./A^3 (1.500717e-02 +/- 1.890389e-04)
    density:        1.057597e+03 kg/m^3     (1.096450e+03 +/- 1.381151e+01)

Average pressure tensor: 
-------------------------------------------------------------------------------
 1.8655e+02  2.1787e+01 -5.6755e+00 +/- 5.9028e+01 7.3170e+01 5.3699e+01 [bar]
 2.1787e+01  1.7753e+02  9.3187e+00 +/- 7.3170e+01 8.8775e+01 7.2920e+01 [bar]
-5.6755e+00  9.3187e+00  1.5792e+02 +/- 5.3699e+01 7.2920e+01 8.8914e+01 [bar]
Ideal-gas pressure:   5.179914e+02 +/ 6.524917e+00 [bar]
Excess pressure:     -3.439884e+02 +/ 1.492004e+01 [bar]
Pressure:             1.740030e+02 +/ 1.947605e+01 [bar]

Total potential energy/kʙ  -3.076114e+05 (-3.174880e+05 +/- 3.569872e+03) [K]
-------------------------------------------------------------------------------
ExternalField-molecule
    Van der Waals/kʙ        0.000000e+00 ( 0.000000e+00 +/- 0.000000e+00) [K]
Framework-molecule
    Van der Waals/kʙ        0.000000e+00 ( 0.000000e+00 +/- 0.000000e+00) [K]
    Van der Waals (Tail)/kʙ 0.000000e+00 ( 0.000000e+00 +/- 0.000000e+00) [K]
    Coulombic Real/kʙ       0.000000e+00 ( 0.000000e+00 +/- 0.000000e+00) [K]
    Coulombic Fourier/kʙ    0.000000e+00 ( 0.000000e+00 +/- 0.000000e+00) [K]
Molecule-molecule
    Van der Waals/kʙ       -2.197032e+05 (-2.275088e+05 +/- 3.031716e+03) [K]
    Van der Waals (Tail)/kʙ-6.979715e+03 (-7.233723e+03 +/- 9.257906e+01) [K]
    Coulombic Real/kʙ      -7.012136e+04 (-7.216846e+04 +/- 7.289719e+02) [K]
    Coulombic Fourier/kʙ   -1.080708e+04 (-1.057699e+04 +/- 1.797191e+02) [K]
    Molecule Intra/kʙ       0.000000e+00 ( 0.000000e+00 +/- 0.000000e+00) [K]


Energy statistics             |  Energy [K]   | Recomputed [K]|  Drift [K]    |
===============================================================================
Total potential energy/kʙ     | -3.179116e+05 | -3.179116e+05 | -3.150350e-10 |
    external field VDW/kʙ     |  0.000000e+00 |  0.000000e+00 |  0.000000e+00 |
    external field Real/kʙ    |  0.000000e+00 |  0.000000e+00 |  0.000000e+00 |
    framework-molecule VDW/kʙ |  0.000000e+00 |  0.000000e+00 |  0.000000e+00 |
    framework-molecule Real/kʙ|  0.000000e+00 |  0.000000e+00 |  0.000000e+00 |
    molecule-molecule VDW/kʙ  | -2.278638e+05 | -2.278638e+05 | -2.100233e-10 |
    molecule-molecule Real/kʙ | -7.271909e+04 | -7.271909e+04 | -8.750971e-11 |
    Van der Waals (Tail)/kʙ   | -7.238616e+03 | -7.238616e+03 |  0.000000e+00 |
    Ewald Fourier/kʙ          |  8.062932e+03 |  8.062932e+03 | -1.750194e-11 |
    Ewald self/kʙ             | -4.023739e+06 | -4.023739e+06 |  0.000000e+00 |
    Ewald exclusion/kʙ        |  4.005586e+06 |  4.005586e+06 |  0.000000e+00 |
    intra VDW/kʙ              |  0.000000e+00 |  0.000000e+00 |  0.000000e+00 |
    intra Coulombic/kʙ        |  0.000000e+00 |  0.000000e+00 |  0.000000e+00 |
    polarization/kʙ           |  0.000000e+00 |  0.000000e+00 |  0.000000e+00 |
    dU/dlambda VDW/kʙ         |  0.000000e+00 |  0.000000e+00 |  0.000000e+00 |
    dU/dlambda Real/kʙ        |  0.000000e+00 |  0.000000e+00 |  0.000000e+00 |
    dU/dlambda Ewald/kʙ       |  0.000000e+00 |  0.000000e+00 |  0.000000e+00 |
-------------------------------------------------------------------------------


Monte-Carlo moves statistics
===============================================================================

    Volume change        all:                6588
    Volume change        total:              6588
    Volume change        constructed:        6588
    Volume change        accepted:           2862
    Volume change        fraction:       0.434426
    Volume change        max-change:     0.033333

Component 0 [CO2]
    Reinsertion (CBMC)   all:              331144
    Reinsertion (CBMC)   total:            331144
    Reinsertion (CBMC)   constructed:      283738
    Reinsertion (CBMC)   accepted:           2955
    Reinsertion (CBMC)   fraction:       0.008924
    Reinsertion (CBMC)   max-change:     0.000000

    Translation          all:              331399
    Translation          total:            110913     110037     110449
    Translation          constructed:      110913     109785     110449
    Translation          accepted:          55437      34976      51654
    Translation          fraction:       0.499824   0.317857   0.467673
    Translation          max-change:     0.636364   1.137931   0.700000

    Rotation             all:              330869
    Rotation             total:            110471     110446     109952
    Rotation             constructed:      110465     110439     109880
    Rotation             accepted:          45759      43957      39570
    Rotation             fraction:       0.414217   0.397995   0.359884
    Rotation             max-change:     0.876522   0.941538   1.066667



Production run counting of the MC moves summed over systems and components
===============================================================================

Volume change                          6588 (0.6588 [%])
Reinsertion (CBMC)                   331144 (33.1144 [%])
Translation                          331399 (33.1399 [%])
Rotation                             330869 (33.0869 [%])

Production count MC-steps:          1000000 [-]
               All summed:          1000000 [-]
               difference:                0 [-]


Production run CPU timings of the MC moves
===============================================================================

Component 0 CO2

Rotation                             46.860687 [s]
    Ewald                            18.622650 [s]
    ExternalField-Molecule            0.011021 [s]
    Framework-Molecule                0.011829 [s]
    Molecule-Molecule                26.916369 [s]
    Overhead                          1.298818 [s]

Reinsertion (CBMC)                  189.282897 [s]
    Ewald                            16.100836 [s]
    NonEwald                        172.897574 [s]
    Overhead                          0.284487 [s]

Translation                          47.023742 [s]
    Ewald                            18.643111 [s]
    ExternalField-Molecule            0.010414 [s]
    Framework-Molecule                0.017200 [s]
    Molecule-Molecule                26.987918 [s]
    Overhead                          1.365099 [s]



Volume change                         43.180431 [s]
    Ewald                             14.383098 [s]
    NonEwald                          26.986537 [s]
    Tail                               1.579914 [s]

Property sampling                     0.286645 [s]
Energy/pressure sampling:             6.555610 [s]


Production run CPU timings of the MC moves summed over systems and components
===============================================================================


Translation                          47.023742 [s]
    Ewald                            18.643111 [s]
    ExternalField-Molecule            0.010414 [s]
    Framework-Molecule                0.017200 [s]
    Molecule-Molecule                26.987918 [s]
    Overhead                          1.365099 [s]

Rotation                             46.860687 [s]
    Ewald                            18.622650 [s]
    ExternalField-Molecule            0.011021 [s]
    Framework-Molecule                0.011829 [s]
    Molecule-Molecule                26.916369 [s]
    Overhead                          1.298818 [s]

Volume change                        43.180431 [s]
    Ewald                            14.383098 [s]
    NonEwald                         26.986537 [s]
    Tail                              1.579914 [s]
    Overhead                          0.230882 [s]

Reinsertion (CBMC)                  189.282897 [s]
    Ewald                            16.100836 [s]
    NonEwald                        172.897574 [s]
    Overhead                          0.284487 [s]

Property sampling:                    0.286645 [s]
Energy/pressure sampling:             6.555610 [s]

Production simulation time:         333.926092 [s]
                All summed:         333.190012 [s]
                  Overhead:           0.736080 [s]


Initalization simulation time:       64.793590 [s]
Equilibration simulation time:        0.000000 [s]
Production simulation time:         333.926092 [s]
Total simulation time:              398.719682 [s]


Energy averages and statistics:
===============================================================================

Framework-molecule energy:
-------------------------------------------------------------------------------



Framework-molecule energy contributions per energy type:
-------------------------------------------------------------------------------



Inter-molecular energy:
-------------------------------------------------------------------------------

    Inter-molecular energy/kʙ 0-0 [CO2-CO2]:
    ---------------------------------------------------------------------------
        Block[  0] -3.210874e+05
        Block[  1] -3.197009e+05
        Block[  2] -3.142399e+05
        Block[  3] -3.153874e+05
        Block[  4] -3.165361e+05
        -----------------------------------------------------------------------
        Average  -3.173904e+05 +/-  3.602047e+03 [K]



Inter-molecular energy contributions per energy type:
-------------------------------------------------------------------------------

    Van der Waals energy/kʙ 0-0 [CO2-CO2]:
    ---------------------------------------------------------------------------
        Block[  0] -2.302616e+05
        Block[  1] -2.292044e+05
        Block[  2] -2.241398e+05
        Block[  3] -2.261181e+05
        Block[  4] -2.275183e+05
        -----------------------------------------------------------------------
        Average  -2.274484e+05 +/-  3.023107e+03 [K]

    VDW Tail-Correction energy/kʙ 0-0 [CO2-CO2]:
    ---------------------------------------------------------------------------
        Block[  0] -7.312720e+03
        Block[  1] -7.292226e+03
        Block[  2] -7.137498e+03
        Block[  3] -7.178242e+03
        Block[  4] -7.243606e+03
        -----------------------------------------------------------------------
        Average  -7.232858e+03 +/-  9.226679e+01 [K]

    Coulomb Real energy/kʙ 0-0 [CO2-CO2]:
    ---------------------------------------------------------------------------
        Block[  0] -7.277808e+04
        Block[  1] -7.250464e+04
        Block[  2] -7.244137e+04
        Block[  3] -7.156037e+04
        Block[  4] -7.141103e+04
        -----------------------------------------------------------------------
        Average  -7.213910e+04 +/-  7.598073e+02 [K]

    Coulomb Fourier energy/kʙ 0-0 [CO2-CO2]:
    ---------------------------------------------------------------------------
        Block[  0] -1.073500e+04
        Block[  1] -1.069966e+04
        Block[  2] -1.052125e+04
        Block[  3] -1.053075e+04
        Block[  4] -1.036314e+04
        -----------------------------------------------------------------------
        Average  -1.056996e+04 +/-  1.869881e+02 [K]


Total energy/kʙ
-------------------------------------------------------------------------------
    Block[  0] -3.210874e+05
    Block[  1] -3.197009e+05
    Block[  2] -3.142399e+05
    Block[  3] -3.153874e+05
    Block[  4] -3.165361e+05
    ---------------------------------------------------------------------------
    Average  -3.173904e+05 +/-  3.602047e+03 [K]

Pressure averages and statistics:
===============================================================================

Average pressure tensor: 
-------------------------------------------------------------------------------
 1.8720e+02  1.8708e+01 -1.8793e+00 +/- 5.8163e+01 6.9933e+01 5.6393e+01 [bar]
 1.8708e+01  1.7904e+02  1.0265e+01 +/- 6.9933e+01 8.7772e+01 7.2988e+01 [bar]
-1.8793e+00  1.0265e+01  1.5861e+02 +/- 5.6393e+01 7.2988e+01 8.3154e+01 [bar]

    Block[  0]  5.237871e+07
    Block[  1]  5.219910e+07
    Block[  2]  5.110024e+07
    Block[  3]  5.145834e+07
    Block[  4]  5.182086e+07
    ---------------------------------------------------------------------------
    Ideal gas pressure   5.179145e+07 +/-  3.921764e-02 [Pa]
                         5.179145e+02 +/-  6.512247e+00 [bar]


    Block[  0] -3.403798e+07
    Block[  1] -3.450019e+07
    Block[  2] -3.600720e+07
    Block[  3] -3.461181e+07
    Block[  4] -3.232433e+07
    ---------------------------------------------------------------------------
    Excess pressure  -3.429630e+07 +/-  1.645081e+06 [Pa]
                     -3.429630e+02 +/-  1.645081e+01 [bar]


    Block[  0]  1.834073e+07
    Block[  1]  1.769891e+07
    Block[  2]  1.509304e+07
    Block[  3]  1.684653e+07
    Block[  4]  1.949653e+07
    ---------------------------------------------------------------------------
    Pressure average   1.749515e+07 +/-  2.054325e+06 [Pa]
                       1.749515e+02 +/-  2.054325e+01 [bar]


Enthalpy of adsorption
===============================================================================

No fluctuating components present.


Densities
===============================================================================

Component 0 (CO2)
    Block[  0] 200
    Block[  1] 200
    Block[  2] 200
    Block[  3] 200
    Block[  4] 200
    -----------------------------------------------------------------------
    Density average   2.000000e+02 +/-  0.000000e+00 [molecules]
    Density average   1.500494e-02 +/-  1.886719e-04 [molec/A^3]
    Density average   1.096287e+03 +/-  1.378469e+01 [kg.m⁻³]

