Compiler and run-time data
===============================================================================
RASPA 3.0.4

Random seed: 3746716029

Compiled as a 64-bits application
Compiler: gcc Ubuntu Clang 18.1.3 (1ubuntu1)
Compile Date = Mar 15 2025, Compile Time = 19:39:45

2025-06-02 14:17:00.103300
Simulation started on Mon, Jun 02
The start time was 14:17:00

Hostname:    c060
OS type:     Linux on x86_64
OS release:  6.8.0-58-generic
OS version:  #60-Ubuntu SMP PREEMPT_DYNAMIC Fri Mar 14 18:29:48 UTC 2025


Mutual consistent basic set of units:
===============================================================================

Unit of temperature: 1 [K]
Unit of length:      1e-10 [m]
Unit of time:        1e-12 [s]
Unit of mass:        1.6605402e-27 [kg]
Unit of charge:      1.60217733e-19 [C/particle]


Boltzmann constant (internal units):          0.8314464919307584 [-]
represents conversion from energy (internal units) to temperature (in Kelvin)

Derived units and their conversion factors:
===============================================================================

Unit of energy:                           1.6605402000000002e-23 [J]
Unit of energy:                           10.000008872307538 [J.mol⁻¹]
Unit of velocity:                         100 [m.s⁻¹]
Unit of force:                            1.6605402000000002e-13 [N]
Unit of diffusion:                        1.0000000000000002e-08 [m².s⁻¹]
Unit of acceleration:                     1.0000000000000002e-08 [m².s⁻¹]
Unit of torque:                           1.6605402000000002e-23 [N.m]
Unit of pressure:                         16605402 [Pa]
Unit of volume:                           1e-30 [m³]
Unit of density:                          1660.5402 [kg.m⁻³]
Unit of dynamic viscosity:                1.6605401999999997e-05 [N.s.m⁻²]
Unit of enthalpy:                         1.6605402000000002e-23 [J]
Unit of polarizability:                   1.5458657349975198e-35 [-]
Unit of Coulomb potential:                167101.08000665612 [K]
Unit of dielectric constant:              1.5458657349975193e-05 [s².C².kg⁻¹.m⁻³]
Unit of dipole moment:                    1.60217733e-29 [C.m]
Unit of Debye:                            4.803206799099162 [C.m]
Unit of electric potential:               0.00010364272224473431 [V]
Unit of electric field:                   1036427.222447343 [V.m⁻¹]
Unit of isothermal compressibility:       6.02213665167516e-08 [Pa⁻¹]
Unit of heat capacity:                    10.000008872307538 [J.mol⁻¹.K⁻¹]
Unit of volumetric expansion coefficient: 1 [K⁻¹]


Internal conversion factors:
===============================================================================

Energy (internal units) to Kelvin:      1.202724284692786 [-]
Kelvin to energy (internal units):      0.8314457542157567 [-]


System definitions
===============================================================================

Temperature:          250 [K]
Beta:                 0.0048108928702210625 [-]
Pressure:             8e+06 [Pa]
Helium void fraction: 1 [-]

Box:      30.00000   0.00000   0.00000
           0.00000  30.00000   0.00000
           0.00000   0.00000  30.00000
Lengths:  30.00000  30.00000  30.00000
Angles:   90.00000  90.00000  90.00000
Rectangular boundary conditions



Property measurement settings
===============================================================================




Pseudo-atoms
===============================================================================

  0 - C_co2    framework-atom: false
  1 - O_co2    framework-atom: false

  0 - C_co2    mass: 12.00000, charge:  0.70000
  1 - O_co2    mass: 15.99940, charge: -0.35000

  0 - C_co2    polarizability:  0.00000
  1 - O_co2    polarizability:  0.00000

  0 - J. J. Potoff et al., AIChE J. 2001, 47, 1676–1682.
  1 - J. J. Potoff et al., AIChE J. 2001, 47, 1676–1682.

Force field status
===============================================================================

Cutoff Framework-Molecule VDW:  10.00000 [Å]
Cutoff Molecule-Molecule VDW:   10.00000 [Å]
Cutoff Coulomb:                 10.00000 [Å]

Overlap-criteria VDW:           1.000000e+05 [K]

C_co2    - C_co2    Lennard-Jones p₀/kʙ:  27.00000 [K], p₁:  2.80000 [Å]
                                  shift:   0.00000 [K], tailcorrections: true
C_co2    - O_co2    Lennard-Jones p₀/kʙ:  46.18441 [K], p₁:  2.92500 [Å]
                                  shift:   0.00000 [K], tailcorrections: true
O_co2    - O_co2    Lennard-Jones p₀/kʙ:  79.00000 [K], p₁:  3.05000 [Å]
                                  shift:   0.00000 [K], tailcorrections: true

Ewald precision: 1e-06
Ewald alpha: 0.32079885109097883
Ewald k-vectors: 10 10 10


Component definitions
===============================================================================

Component 0 [CO2]

    Type: Adsorbate

    Critical temperature:  304.1282 [K]
    Critical pressure:     7377300 [Pa]
    Acentric factor:       0.22394 [-]

    Mol-fraction:                 1 [-]
    Swappable:                   false

    Mass:                         43.9988 [-]
    Bulk fluid density:           0 [-]
    Compressibility:              0 [-]
    Excess molecules:             0 [-]

    Number Of Atoms:    3
    CBMC starting bead: 0
      0: O_co2  position  0.00000 -0.00000  1.16000, charge -0.35000
      1: C_co2  position  0.00000 -0.00000  0.00000, charge  0.70000
      2: O_co2  position  0.00000 -0.00000 -1.16000, charge -0.35000
    Diagonalized inertia-vector:      43.05758528 43.05758528 0.00000000
    Translational degrees of freedom: 3
    Rotational degrees of freedom:    2
    Shape of the molecule is: 'Linear'
    Net-charge:        0.00000000 [e]

    Move probabilities:
    Translation:                   0.331126 [-]
    Random translation:            0.000000 [-]
    Rotation:                      0.331126 [-]
    Random rotation:               0.000000 [-]
    Volume change:                 0.006623 [-]
    Reinsertion (CBMC):            0.331126 [-]
    Identity change (CBMC):        0.000000 [-]
    Swap:                          0.000000 [-]
    Swap (CBMC):                   0.000000 [-]
    Swap (CFCMC):                  0.000000 [-]
    Swap (CB/CFCMC):               0.000000 [-]
    Gibbs volume:                  0.000000 [-]
    Gibbs swap (CBMC):             0.000000 [-]
    Gibbs swap (CFCMC):            0.000000 [-]
    Widom:                         0.000000 [-]
    Widom (CFCMC):                 0.000000 [-]
    Widom (CB/CFCMC):              0.000000 [-]
    Parallel tempering:            0.000000 [-]
    Hybrid MC:                     0.000000 [-]

    number of blocking-pockets: 0

    number of bonds: 0





Number of pseudo-atoms
===============================================================================

Component   0 (CO2)
-------------------------------------------------------------------------------
    index   0 (C_co2): 100 atoms
    index   1 (O_co2): 200 atoms

Total number of pseudo-atoms:
-------------------------------------------------------------------------------
    index   0 (C_co2): 100 atoms
    index   1 (O_co2): 200 atoms




Energy status Recomputed from scratch
===============================================================================

Total potential energy/kʙ       -4.134792e+03 [K]
    external field VDW/kʙ        0.000000e+00 [K]
    external field Real/kʙ       0.000000e+00 [K]
    framework-molecule VDW/kʙ    0.000000e+00 [K]
    framework-molecule Real/kʙ   0.000000e+00 [K]
    molecule-molecule VDW/kʙ    -5.412412e+02 [K]
    molecule-molecule Real/kʙ   -2.528339e+03 [K]
    Van der Waals (Tail)/kʙ     -1.188352e+03 [K]
    Ewald Fourier/kʙ             1.465399e+04 [K]
    Ewald self/kʙ               -2.222923e+06 [K]
    Ewald exclusion/kʙ           2.208392e+06 [K]
    intra VDW/kʙ                 0.000000e+00 [K]
    intra Coulombic/kʙ           0.000000e+00 [K]
    polarization/kʙ              0.000000e+00 [K]
    dU/dlambda VDW/kʙ            0.000000e+00 [K]
    dU/dlambda Real/kʙ           0.000000e+00 [K]
    dU/dlambda Ewald/kʙ          0.000000e+00 [K]





Initialization: Current cycle: 0 out of 1000
===============================================================================

Box:      30.00000   0.00000   0.00000
           0.00000  30.00000   0.00000
           0.00000   0.00000  30.00000
Lengths:  30.00000  30.00000  30.00000
Angles:   90.00000  90.00000  90.00000
Rectangular boundary conditions

net charge:   0.00000000

component   0 (CO2) lambda:  0 occupancy:  1 (1.000000)
    net charge:   0.00000000 [e]

Amount of molecules per component :
-------------------------------------------------------------------------------
Component 0 (CO2)
    molecules:         1.000000e+02 molecules
    number density:    3.703704e-03 molec/A^3
    density:           2.705989e+02 kg/m^3

Total potential energy/kʙ       -3.784232e+04 [K]
-------------------------------------------------------------------------------
    external field VDW/kʙ        0.000000e+00 [K]
    external field Real/kʙ       0.000000e+00 [K]
    framework-molecule VDW/kʙ    0.000000e+00 [K]
    framework-molecule Real/kʙ   0.000000e+00 [K]
    molecule-molecule VDW/kʙ    -3.137760e+04 [K]
    molecule-molecule Real/kʙ   -4.962032e+03 [K]
    Van der Waals (Tail)/kʙ     -1.188352e+03 [K]
    Ewald Fourier/kʙ             1.421652e+04 [K]
    Ewald self/kʙ               -2.222923e+06 [K]
    Ewald exclusion/kʙ           2.208392e+06 [K]
    intra VDW/kʙ                 0.000000e+00 [K]
    intra Coulombic/kʙ           0.000000e+00 [K]
    polarization/kʙ              0.000000e+00 [K]
    dU/dlambda VDW/kʙ            0.000000e+00 [K]
    dU/dlambda Real/kʙ           0.000000e+00 [K]
    dU/dlambda Ewald/kʙ          0.000000e+00 [K]


Initialization: Current cycle: 100 out of 1000
===============================================================================

Box:      30.04559   0.00000   0.00000
           0.00000  30.04559   0.00000
           0.00000   0.00000  30.04559
Lengths:  30.04559  30.04559  30.04559
Angles:   90.00000  90.00000  90.00000
Rectangular boundary conditions

net charge:   0.00000000

component   0 (CO2) lambda:  0 occupancy:  1 (1.000000)
    net charge:   0.00000000 [e]

Amount of molecules per component :
-------------------------------------------------------------------------------
Component 0 (CO2)
    molecules:         1.000000e+02 molecules
    number density:    3.686871e-03 molec/A^3
    density:           2.693691e+02 kg/m^3

Total potential energy/kʙ       -5.852715e+04 [K]
-------------------------------------------------------------------------------
    external field VDW/kʙ        0.000000e+00 [K]
    external field Real/kʙ       0.000000e+00 [K]
    framework-molecule VDW/kʙ    0.000000e+00 [K]
    framework-molecule Real/kʙ   0.000000e+00 [K]
    molecule-molecule VDW/kʙ    -4.397125e+04 [K]
    molecule-molecule Real/kʙ   -1.089512e+04 [K]
    Van der Waals (Tail)/kʙ     -1.182951e+03 [K]
    Ewald Fourier/kʙ             1.205301e+04 [K]
    Ewald self/kʙ               -2.222923e+06 [K]
    Ewald exclusion/kʙ           2.208392e+06 [K]
    intra VDW/kʙ                 0.000000e+00 [K]
    intra Coulombic/kʙ           0.000000e+00 [K]
    polarization/kʙ              0.000000e+00 [K]
    dU/dlambda VDW/kʙ            0.000000e+00 [K]
    dU/dlambda Real/kʙ           0.000000e+00 [K]
    dU/dlambda Ewald/kʙ          0.000000e+00 [K]


Initialization: Current cycle: 200 out of 1000
===============================================================================

Box:      27.45873   0.00000   0.00000
           0.00000  27.45873   0.00000
           0.00000   0.00000  27.45873
Lengths:  27.45873  27.45873  27.45873
Angles:   90.00000  90.00000  90.00000
Rectangular boundary conditions

net charge:   0.00000000

component   0 (CO2) lambda:  0 occupancy:  1 (1.000000)
    net charge:   0.00000000 [e]

Amount of molecules per component :
-------------------------------------------------------------------------------
Component 0 (CO2)
    molecules:         1.000000e+02 molecules
    number density:    4.830127e-03 molec/A^3
    density:           3.528973e+02 kg/m^3

Total potential energy/kʙ       -7.995444e+04 [K]
-------------------------------------------------------------------------------
    external field VDW/kʙ        0.000000e+00 [K]
    external field Real/kʙ       0.000000e+00 [K]
    framework-molecule VDW/kʙ    0.000000e+00 [K]
    framework-molecule Real/kʙ   0.000000e+00 [K]
    molecule-molecule VDW/kʙ    -5.850231e+04 [K]
    molecule-molecule Real/kʙ   -1.574919e+04 [K]
    Van der Waals (Tail)/kʙ     -1.549770e+03 [K]
    Ewald Fourier/kʙ             1.037769e+04 [K]
    Ewald self/kʙ               -2.222923e+06 [K]
    Ewald exclusion/kʙ           2.208392e+06 [K]
    intra VDW/kʙ                 0.000000e+00 [K]
    intra Coulombic/kʙ           0.000000e+00 [K]
    polarization/kʙ              0.000000e+00 [K]
    dU/dlambda VDW/kʙ            0.000000e+00 [K]
    dU/dlambda Real/kʙ           0.000000e+00 [K]
    dU/dlambda Ewald/kʙ          0.000000e+00 [K]


Initialization: Current cycle: 300 out of 1000
===============================================================================

Box:      26.13053   0.00000   0.00000
           0.00000  26.13053   0.00000
           0.00000   0.00000  26.13053
Lengths:  26.13053  26.13053  26.13053
Angles:   90.00000  90.00000  90.00000
Rectangular boundary conditions

net charge:   0.00000000

component   0 (CO2) lambda:  0 occupancy:  1 (1.000000)
    net charge:   0.00000000 [e]

Amount of molecules per component :
-------------------------------------------------------------------------------
Component 0 (CO2)
    molecules:         1.000000e+02 molecules
    number density:    5.604738e-03 molec/A^3
    density:           4.094917e+02 kg/m^3

Total potential energy/kʙ       -7.369917e+04 [K]
-------------------------------------------------------------------------------
    external field VDW/kʙ        0.000000e+00 [K]
    external field Real/kʙ       0.000000e+00 [K]
    framework-molecule VDW/kʙ    0.000000e+00 [K]
    framework-molecule Real/kʙ   0.000000e+00 [K]
    molecule-molecule VDW/kʙ    -5.359437e+04 [K]
    molecule-molecule Real/kʙ   -1.429763e+04 [K]
    Van der Waals (Tail)/kʙ     -1.798308e+03 [K]
    Ewald Fourier/kʙ             1.052199e+04 [K]
    Ewald self/kʙ               -2.222923e+06 [K]
    Ewald exclusion/kʙ           2.208392e+06 [K]
    intra VDW/kʙ                 0.000000e+00 [K]
    intra Coulombic/kʙ           0.000000e+00 [K]
    polarization/kʙ              0.000000e+00 [K]
    dU/dlambda VDW/kʙ            0.000000e+00 [K]
    dU/dlambda Real/kʙ           0.000000e+00 [K]
    dU/dlambda Ewald/kʙ          0.000000e+00 [K]


Initialization: Current cycle: 400 out of 1000
===============================================================================

Box:      24.11066   0.00000   0.00000
           0.00000  24.11066   0.00000
           0.00000   0.00000  24.11066
Lengths:  24.11066  24.11066  24.11066
Angles:   90.00000  90.00000  90.00000
Rectangular boundary conditions

net charge:   0.00000000

component   0 (CO2) lambda:  0 occupancy:  1 (1.000000)
    net charge:   0.00000000 [e]

Amount of molecules per component :
-------------------------------------------------------------------------------
Component 0 (CO2)
    molecules:         1.000000e+02 molecules
    number density:    7.134654e-03 molec/A^3
    density:           5.212700e+02 kg/m^3

Total potential energy/kʙ       -8.861932e+04 [K]
-------------------------------------------------------------------------------
    external field VDW/kʙ        0.000000e+00 [K]
    external field Real/kʙ       0.000000e+00 [K]
    framework-molecule VDW/kʙ    0.000000e+00 [K]
    framework-molecule Real/kʙ   0.000000e+00 [K]
    molecule-molecule VDW/kʙ    -6.037355e+04 [K]
    molecule-molecule Real/kʙ   -2.053764e+04 [K]
    Van der Waals (Tail)/kʙ     -2.289189e+03 [K]
    Ewald Fourier/kʙ             9.111911e+03 [K]
    Ewald self/kʙ               -2.222923e+06 [K]
    Ewald exclusion/kʙ           2.208392e+06 [K]
    intra VDW/kʙ                 0.000000e+00 [K]
    intra Coulombic/kʙ           0.000000e+00 [K]
    polarization/kʙ              0.000000e+00 [K]
    dU/dlambda VDW/kʙ            0.000000e+00 [K]
    dU/dlambda Real/kʙ           0.000000e+00 [K]
    dU/dlambda Ewald/kʙ          0.000000e+00 [K]


Initialization: Current cycle: 500 out of 1000
===============================================================================

Box:      22.29273   0.00000   0.00000
           0.00000  22.29273   0.00000
           0.00000   0.00000  22.29273
Lengths:  22.29273  22.29273  22.29273
Angles:   90.00000  90.00000  90.00000
Rectangular boundary conditions

net charge:   0.00000000

component   0 (CO2) lambda:  0 occupancy:  1 (1.000000)
    net charge:   0.00000000 [e]

Amount of molecules per component :
-------------------------------------------------------------------------------
Component 0 (CO2)
    molecules:         1.000000e+02 molecules
    number density:    9.026310e-03 molec/A^3
    density:           6.594776e+02 kg/m^3

Total potential energy/kʙ       -1.047250e+05 [K]
-------------------------------------------------------------------------------
    external field VDW/kʙ        0.000000e+00 [K]
    external field Real/kʙ       0.000000e+00 [K]
    framework-molecule VDW/kʙ    0.000000e+00 [K]
    framework-molecule Real/kʙ   0.000000e+00 [K]
    molecule-molecule VDW/kʙ    -7.581942e+04 [K]
    molecule-molecule Real/kʙ   -2.057973e+04 [K]
    Van der Waals (Tail)/kʙ     -2.896136e+03 [K]
    Ewald Fourier/kʙ             9.101186e+03 [K]
    Ewald self/kʙ               -2.222923e+06 [K]
    Ewald exclusion/kʙ           2.208392e+06 [K]
    intra VDW/kʙ                 0.000000e+00 [K]
    intra Coulombic/kʙ           0.000000e+00 [K]
    polarization/kʙ              0.000000e+00 [K]
    dU/dlambda VDW/kʙ            0.000000e+00 [K]
    dU/dlambda Real/kʙ           0.000000e+00 [K]
    dU/dlambda Ewald/kʙ          0.000000e+00 [K]


Initialization: Current cycle: 600 out of 1000
===============================================================================

Box:      20.70161   0.00000   0.00000
           0.00000  20.70161   0.00000
           0.00000   0.00000  20.70161
Lengths:  20.70161  20.70161  20.70161
Angles:   90.00000  90.00000  90.00000
Rectangular boundary conditions

net charge:   0.00000000

component   0 (CO2) lambda:  0 occupancy:  1 (1.000000)
    net charge:   0.00000000 [e]

Amount of molecules per component :
-------------------------------------------------------------------------------
Component 0 (CO2)
    molecules:         1.000000e+02 molecules
    number density:    1.127166e-02 molec/A^3
    density:           8.235268e+02 kg/m^3

Total potential energy/kʙ       -1.203138e+05 [K]
-------------------------------------------------------------------------------
    external field VDW/kʙ        0.000000e+00 [K]
    external field Real/kʙ       0.000000e+00 [K]
    framework-molecule VDW/kʙ    0.000000e+00 [K]
    framework-molecule Real/kʙ   0.000000e+00 [K]
    molecule-molecule VDW/kʙ    -8.547205e+04 [K]
    molecule-molecule Real/kʙ   -2.401114e+04 [K]
    Van der Waals (Tail)/kʙ     -3.616568e+03 [K]
    Ewald Fourier/kʙ             7.316845e+03 [K]
    Ewald self/kʙ               -2.222923e+06 [K]
    Ewald exclusion/kʙ           2.208392e+06 [K]
    intra VDW/kʙ                 0.000000e+00 [K]
    intra Coulombic/kʙ           0.000000e+00 [K]
    polarization/kʙ              0.000000e+00 [K]
    dU/dlambda VDW/kʙ            0.000000e+00 [K]
    dU/dlambda Real/kʙ           0.000000e+00 [K]
    dU/dlambda Ewald/kʙ          0.000000e+00 [K]


Initialization: Current cycle: 700 out of 1000
===============================================================================

Box:      20.02110   0.00000   0.00000
           0.00000  20.02110   0.00000
           0.00000   0.00000  20.02110
Lengths:  20.02110  20.02110  20.02110
Angles:   90.00000  90.00000  90.00000
Rectangular boundary conditions

net charge:   0.00000000

component   0 (CO2) lambda:  0 occupancy:  1 (1.000000)
    net charge:   0.00000000 [e]

Amount of molecules per component :
-------------------------------------------------------------------------------
Component 0 (CO2)
    molecules:         1.000000e+02 molecules
    number density:    1.246052e-02 molec/A^3
    density:           9.103868e+02 kg/m^3

Total potential energy/kʙ       -1.200441e+05 [K]
-------------------------------------------------------------------------------
    external field VDW/kʙ        0.000000e+00 [K]
    external field Real/kʙ       0.000000e+00 [K]
    framework-molecule VDW/kʙ    0.000000e+00 [K]
    framework-molecule Real/kʙ   0.000000e+00 [K]
    molecule-molecule VDW/kʙ    -8.870463e+04 [K]
    molecule-molecule Real/kʙ   -2.065304e+04 [K]
    Van der Waals (Tail)/kʙ     -3.998018e+03 [K]
    Ewald Fourier/kʙ             7.842483e+03 [K]
    Ewald self/kʙ               -2.222923e+06 [K]
    Ewald exclusion/kʙ           2.208392e+06 [K]
    intra VDW/kʙ                 0.000000e+00 [K]
    intra Coulombic/kʙ           0.000000e+00 [K]
    polarization/kʙ              0.000000e+00 [K]
    dU/dlambda VDW/kʙ            0.000000e+00 [K]
    dU/dlambda Real/kʙ           0.000000e+00 [K]
    dU/dlambda Ewald/kʙ          0.000000e+00 [K]


Initialization: Current cycle: 800 out of 1000
===============================================================================

Box:      19.25830   0.00000   0.00000
           0.00000  19.25830   0.00000
           0.00000   0.00000  19.25830
Lengths:  19.25830  19.25830  19.25830
Angles:   90.00000  90.00000  90.00000
Rectangular boundary conditions

net charge:   0.00000000

component   0 (CO2) lambda:  0 occupancy:  1 (1.000000)
    net charge:   0.00000000 [e]

Amount of molecules per component :
-------------------------------------------------------------------------------
Component 0 (CO2)
    molecules:         1.000000e+02 molecules
    number density:    1.400059e-02 molec/A^3
    density:           1.022907e+03 kg/m^3

Total potential energy/kʙ       -1.445605e+05 [K]
-------------------------------------------------------------------------------
    external field VDW/kʙ        0.000000e+00 [K]
    external field Real/kʙ       0.000000e+00 [K]
    framework-molecule VDW/kʙ    0.000000e+00 [K]
    framework-molecule Real/kʙ   0.000000e+00 [K]
    molecule-molecule VDW/kʙ    -1.018222e+05 [K]
    molecule-molecule Real/kʙ   -3.090283e+04 [K]
    Van der Waals (Tail)/kʙ     -4.492158e+03 [K]
    Ewald Fourier/kʙ             7.187610e+03 [K]
    Ewald self/kʙ               -2.222923e+06 [K]
    Ewald exclusion/kʙ           2.208392e+06 [K]
    intra VDW/kʙ                 0.000000e+00 [K]
    intra Coulombic/kʙ           0.000000e+00 [K]
    polarization/kʙ              0.000000e+00 [K]
    dU/dlambda VDW/kʙ            0.000000e+00 [K]
    dU/dlambda Real/kʙ           0.000000e+00 [K]
    dU/dlambda Ewald/kʙ          0.000000e+00 [K]


Initialization: Current cycle: 900 out of 1000
===============================================================================

Box:      18.98561   0.00000   0.00000
           0.00000  18.98561   0.00000
           0.00000   0.00000  18.98561
Lengths:  18.98561  18.98561  18.98561
Angles:   90.00000  90.00000  90.00000
Rectangular boundary conditions

net charge:   0.00000000

component   0 (CO2) lambda:  0 occupancy:  1 (1.000000)
    net charge:   0.00000000 [e]

Amount of molecules per component :
-------------------------------------------------------------------------------
Component 0 (CO2)
    molecules:         1.000000e+02 molecules
    number density:    1.461257e-02 molec/A^3
    density:           1.067620e+03 kg/m^3

Total potential energy/kʙ       -1.564428e+05 [K]
-------------------------------------------------------------------------------
    external field VDW/kʙ        0.000000e+00 [K]
    external field Real/kʙ       0.000000e+00 [K]
    framework-molecule VDW/kʙ    0.000000e+00 [K]
    framework-molecule Real/kʙ   0.000000e+00 [K]
    molecule-molecule VDW/kʙ    -1.071585e+05 [K]
    molecule-molecule Real/kʙ   -3.651536e+04 [K]
    Van der Waals (Tail)/kʙ     -4.688516e+03 [K]
    Ewald Fourier/kʙ             6.450474e+03 [K]
    Ewald self/kʙ               -2.222923e+06 [K]
    Ewald exclusion/kʙ           2.208392e+06 [K]
    intra VDW/kʙ                 0.000000e+00 [K]
    intra Coulombic/kʙ           0.000000e+00 [K]
    polarization/kʙ              0.000000e+00 [K]
    dU/dlambda VDW/kʙ            0.000000e+00 [K]
    dU/dlambda Real/kʙ           0.000000e+00 [K]
    dU/dlambda Ewald/kʙ          0.000000e+00 [K]


Current cycle: 0 out of 5000
===============================================================================

Box:      18.92130   0.00000   0.00000  Average:  18.92130   0.00000   0.00000
           0.00000  18.92130   0.00000             0.00000  18.92130   0.00000
           0.00000   0.00000  18.92130             0.00000   0.00000  18.92130
Lengths:  18.92130  18.92130  18.92130  Average:  18.92130  18.92130  18.92130
Angles:   90.00000  90.00000  90.00000  Average:  90.00000  90.00000  90.00000
Rectangular boundary conditions

net charge:   0.00000000

component 0 (CO2) lambda:  0 occupancy:  1 (1.000000)
    net charge:   0.00000000 [e]

Amount of molecules per component :
-------------------------------------------------------------------------------
Component 0 (CO2)
    molecules:      1.000000e+02 molecules  (1.000000e+02 +/- 0.000000e+00)
    number density: 1.476205e-02 molec./A^3 (1.476205e-02 +/- 0.000000e+00)
    density:        1.078541e+03 kg/m^3     (1.078541e+03 +/- 0.000000e+00)

Average pressure tensor: 
-------------------------------------------------------------------------------
 5.0953e+02  0.0000e+00  0.0000e+00 +/- 0.0000e+00 0.0000e+00 0.0000e+00 [bar]
 0.0000e+00  5.0953e+02  0.0000e+00 +/- 0.0000e+00 0.0000e+00 0.0000e+00 [bar]
 0.0000e+00  0.0000e+00  5.0953e+02 +/- 0.0000e+00 0.0000e+00 0.0000e+00 [bar]
Ideal-gas pressure:   5.095308e+02 +/ 0.000000e+00 [bar]
Excess pressure:      0.000000e+00 +/ 0.000000e+00 [bar]
Pressure:             5.095308e+02 +/ 0.000000e+00 [bar]

Total potential energy/kʙ  -1.476398e+05 (-1.476398e+05 +/- 0.000000e+00) [K]
-------------------------------------------------------------------------------
ExternalField-molecule
    Van der Waals/kʙ        0.000000e+00 ( 0.000000e+00 +/- 0.000000e+00) [K]
Framework-molecule
    Van der Waals/kʙ        0.000000e+00 ( 0.000000e+00 +/- 0.000000e+00) [K]
    Van der Waals (Tail)/kʙ 0.000000e+00 ( 0.000000e+00 +/- 0.000000e+00) [K]
    Coulombic Real/kʙ       0.000000e+00 ( 0.000000e+00 +/- 0.000000e+00) [K]
    Coulombic Fourier/kʙ    0.000000e+00 ( 0.000000e+00 +/- 0.000000e+00) [K]
Molecule-molecule
    Van der Waals/kʙ       -1.061704e+05 (-1.061704e+05 +/- 0.000000e+00) [K]
    Van der Waals (Tail)/kʙ-4.736477e+03 (-4.736477e+03 +/- 0.000000e+00) [K]
    Coulombic Real/kʙ      -2.949663e+04 (-2.949663e+04 +/- 0.000000e+00) [K]
    Coulombic Fourier/kʙ   -7.236279e+03 (-7.236279e+03 +/- 0.000000e+00) [K]
    Molecule Intra/kʙ       0.000000e+00 ( 0.000000e+00 +/- 0.000000e+00) [K]

Current cycle: 100 out of 5000
===============================================================================

Box:      18.78418   0.00000   0.00000  Average:  18.95149   0.00000   0.00000
           0.00000  18.78418   0.00000             0.00000  18.95149   0.00000
           0.00000   0.00000  18.78418             0.00000   0.00000  18.95149
Lengths:  18.78418  18.78418  18.78418  Average:  18.95149  18.95149  18.95149
Angles:   90.00000  90.00000  90.00000  Average:  90.00000  90.00000  90.00000
Rectangular boundary conditions

net charge:   0.00000000

component 0 (CO2) lambda:  0 occupancy:  1 (1.000000)
    net charge:   0.00000000 [e]

Amount of molecules per component :
-------------------------------------------------------------------------------
Component 0 (CO2)
    molecules:      1.000000e+02 molecules  (1.000000e+02 +/- 0.000000e+00)
    number density: 1.508771e-02 molec./A^3 (1.469563e-02 +/- 0.000000e+00)
    density:        1.102334e+03 kg/m^3     (1.073688e+03 +/- 0.000000e+00)

Average pressure tensor: 
-------------------------------------------------------------------------------
 2.7747e+02  2.8964e+02 -5.7973e+01 +/- 0.0000e+00 0.0000e+00 0.0000e+00 [bar]
 2.8964e+02  2.4383e+02  9.5039e+01 +/- 0.0000e+00 0.0000e+00 0.0000e+00 [bar]
-5.7973e+01  9.5039e+01  1.4160e+02 +/- 0.0000e+00 0.0000e+00 0.0000e+00 [bar]
Ideal-gas pressure:   5.072382e+02 +/ 0.000000e+00 [bar]
Excess pressure:     -2.862711e+02 +/ 0.000000e+00 [bar]
Pressure:             2.209671e+02 +/ 0.000000e+00 [bar]

Total potential energy/kʙ  -1.536837e+05 (-1.509356e+05 +/- 0.000000e+00) [K]
-------------------------------------------------------------------------------
ExternalField-molecule
    Van der Waals/kʙ        0.000000e+00 ( 0.000000e+00 +/- 0.000000e+00) [K]
Framework-molecule
    Van der Waals/kʙ        0.000000e+00 ( 0.000000e+00 +/- 0.000000e+00) [K]
    Van der Waals (Tail)/kʙ 0.000000e+00 ( 0.000000e+00 +/- 0.000000e+00) [K]
    Coulombic Real/kʙ       0.000000e+00 ( 0.000000e+00 +/- 0.000000e+00) [K]
    Coulombic Fourier/kʙ    0.000000e+00 ( 0.000000e+00 +/- 0.000000e+00) [K]
Molecule-molecule
    Van der Waals/kʙ       -1.108096e+05 (-1.090238e+05 +/- 0.000000e+00) [K]
    Van der Waals (Tail)/kʙ-4.840964e+03 (-4.729697e+03 +/- 0.000000e+00) [K]
    Coulombic Real/kʙ      -3.049784e+04 (-2.987221e+04 +/- 0.000000e+00) [K]
    Coulombic Fourier/kʙ   -7.535271e+03 (-7.309825e+03 +/- 0.000000e+00) [K]
    Molecule Intra/kʙ       0.000000e+00 ( 0.000000e+00 +/- 0.000000e+00) [K]

Current cycle: 200 out of 5000
===============================================================================

Box:      18.71447   0.00000   0.00000  Average:  18.87439   0.00000   0.00000
           0.00000  18.71447   0.00000             0.00000  18.87439   0.00000
           0.00000   0.00000  18.71447             0.00000   0.00000  18.87439
Lengths:  18.71447  18.71447  18.71447  Average:  18.87439  18.87439  18.87439
Angles:   90.00000  90.00000  90.00000  Average:  90.00000  90.00000  90.00000
Rectangular boundary conditions

net charge:   0.00000000

component 0 (CO2) lambda:  0 occupancy:  1 (1.000000)
    net charge:   0.00000000 [e]

Amount of molecules per component :
-------------------------------------------------------------------------------
Component 0 (CO2)
    molecules:      1.000000e+02 molecules  (1.000000e+02 +/- 0.000000e+00)
    number density: 1.525694e-02 molec./A^3 (1.487664e-02 +/- 0.000000e+00)
    density:        1.114698e+03 kg/m^3     (1.086913e+03 +/- 0.000000e+00)

Average pressure tensor: 
-------------------------------------------------------------------------------
 2.7750e+02  1.1697e+02 -2.3851e+01 +/- 0.0000e+00 0.0000e+00 0.0000e+00 [bar]
 1.1697e+02  3.7497e+02  1.9873e+01 +/- 0.0000e+00 0.0000e+00 0.0000e+00 [bar]
-2.3851e+01  1.9873e+01  2.5616e+00 +/- 0.0000e+00 0.0000e+00 0.0000e+00 [bar]
Ideal-gas pressure:   5.134860e+02 +/ 0.000000e+00 [bar]
Excess pressure:     -2.951399e+02 +/ 0.000000e+00 [bar]
Pressure:             2.183461e+02 +/ 0.000000e+00 [bar]

Total potential energy/kʙ  -1.626023e+05 (-1.539792e+05 +/- 0.000000e+00) [K]
-------------------------------------------------------------------------------
ExternalField-molecule
    Van der Waals/kʙ        0.000000e+00 ( 0.000000e+00 +/- 0.000000e+00) [K]
Framework-molecule
    Van der Waals/kʙ        0.000000e+00 ( 0.000000e+00 +/- 0.000000e+00) [K]
    Van der Waals (Tail)/kʙ 0.000000e+00 ( 0.000000e+00 +/- 0.000000e+00) [K]
    Coulombic Real/kʙ       0.000000e+00 ( 0.000000e+00 +/- 0.000000e+00) [K]
    Coulombic Fourier/kʙ    0.000000e+00 ( 0.000000e+00 +/- 0.000000e+00) [K]
Molecule-molecule
    Van der Waals/kʙ       -1.166416e+05 (-1.114582e+05 +/- 0.000000e+00) [K]
    Van der Waals (Tail)/kʙ-4.895265e+03 (-4.783621e+03 +/- 0.000000e+00) [K]
    Coulombic Real/kʙ      -3.295030e+04 (-3.023958e+04 +/- 0.000000e+00) [K]
    Coulombic Fourier/kʙ   -8.115222e+03 (-7.497830e+03 +/- 0.000000e+00) [K]
    Molecule Intra/kʙ       0.000000e+00 ( 0.000000e+00 +/- 0.000000e+00) [K]

Current cycle: 300 out of 5000
===============================================================================

Box:      18.93337   0.00000   0.00000  Average:  18.85507   0.00000   0.00000
           0.00000  18.93337   0.00000             0.00000  18.85507   0.00000
           0.00000   0.00000  18.93337             0.00000   0.00000  18.85507
Lengths:  18.93337  18.93337  18.93337  Average:  18.85507  18.85507  18.85507
Angles:   90.00000  90.00000  90.00000  Average:  90.00000  90.00000  90.00000
Rectangular boundary conditions

net charge:   0.00000000

component 0 (CO2) lambda:  0 occupancy:  1 (1.000000)
    net charge:   0.00000000 [e]

Amount of molecules per component :
-------------------------------------------------------------------------------
Component 0 (CO2)
    molecules:      1.000000e+02 molecules  (1.000000e+02 +/- 0.000000e+00)
    number density: 1.473385e-02 molec./A^3 (1.492178e-02 +/- 0.000000e+00)
    density:        1.076480e+03 kg/m^3     (1.090211e+03 +/- 0.000000e+00)

Average pressure tensor: 
-------------------------------------------------------------------------------
 2.4996e+02  1.2189e+01 -1.0517e+02 +/- 0.0000e+00 0.0000e+00 0.0000e+00 [bar]
 1.2189e+01  2.3695e+02  2.7582e+01 +/- 0.0000e+00 0.0000e+00 0.0000e+00 [bar]
-1.0517e+02  2.7582e+01  2.7204e+01 +/- 0.0000e+00 0.0000e+00 0.0000e+00 [bar]
Ideal-gas pressure:   5.150441e+02 +/ 0.000000e+00 [bar]
Excess pressure:     -3.436758e+02 +/ 0.000000e+00 [bar]
Pressure:             1.713683e+02 +/ 0.000000e+00 [bar]

Total potential energy/kʙ  -1.563695e+05 (-1.555566e+05 +/- 0.000000e+00) [K]
-------------------------------------------------------------------------------
ExternalField-molecule
    Van der Waals/kʙ        0.000000e+00 ( 0.000000e+00 +/- 0.000000e+00) [K]
Framework-molecule
    Van der Waals/kʙ        0.000000e+00 ( 0.000000e+00 +/- 0.000000e+00) [K]
    Van der Waals (Tail)/kʙ 0.000000e+00 ( 0.000000e+00 +/- 0.000000e+00) [K]
    Coulombic Real/kʙ       0.000000e+00 ( 0.000000e+00 +/- 0.000000e+00) [K]
    Coulombic Fourier/kʙ    0.000000e+00 ( 0.000000e+00 +/- 0.000000e+00) [K]
Molecule-molecule
    Van der Waals/kʙ       -1.106486e+05 (-1.115607e+05 +/- 0.000000e+00) [K]
    Van der Waals (Tail)/kʙ-4.727428e+03 (-4.790425e+03 +/- 0.000000e+00) [K]
    Coulombic Real/kʙ      -3.312148e+04 (-3.159922e+04 +/- 0.000000e+00) [K]
    Coulombic Fourier/kʙ   -7.871920e+03 (-7.606236e+03 +/- 0.000000e+00) [K]
    Molecule Intra/kʙ       0.000000e+00 ( 0.000000e+00 +/- 0.000000e+00) [K]

Current cycle: 400 out of 5000
===============================================================================

Box:      18.81015   0.00000   0.00000  Average:  18.87609   0.00000   0.00000
           0.00000  18.81015   0.00000             0.00000  18.87609   0.00000
           0.00000   0.00000  18.81015             0.00000   0.00000  18.87609
Lengths:  18.81015  18.81015  18.81015  Average:  18.87609  18.87609  18.87609
Angles:   90.00000  90.00000  90.00000  Average:  90.00000  90.00000  90.00000
Rectangular boundary conditions

net charge:   0.00000000

component 0 (CO2) lambda:  0 occupancy:  1 (1.000000)
    net charge:   0.00000000 [e]

Amount of molecules per component :
-------------------------------------------------------------------------------
Component 0 (CO2)
    molecules:      1.000000e+02 molecules  (1.000000e+02 +/- 0.000000e+00)
    number density: 1.502530e-02 molec./A^3 (1.487194e-02 +/- 0.000000e+00)
    density:        1.097774e+03 kg/m^3     (1.086569e+03 +/- 0.000000e+00)

Average pressure tensor: 
-------------------------------------------------------------------------------
 2.7655e+02 -7.3786e+01 -9.7147e+01 +/- 0.0000e+00 0.0000e+00 0.0000e+00 [bar]
-7.3786e+01  1.2921e+02  9.0017e+00 +/- 0.0000e+00 0.0000e+00 0.0000e+00 [bar]
-9.7147e+01  9.0017e+00 -1.8873e+01 +/- 0.0000e+00 0.0000e+00 0.0000e+00 [bar]
Ideal-gas pressure:   5.133236e+02 +/ 0.000000e+00 [bar]
Excess pressure:     -3.843628e+02 +/ 0.000000e+00 [bar]
Pressure:             1.289609e+02 +/ 0.000000e+00 [bar]

Total potential energy/kʙ  -1.581633e+05 (-1.554405e+05 +/- 0.000000e+00) [K]
-------------------------------------------------------------------------------
ExternalField-molecule
    Van der Waals/kʙ        0.000000e+00 ( 0.000000e+00 +/- 0.000000e+00) [K]
Framework-molecule
    Van der Waals/kʙ        0.000000e+00 ( 0.000000e+00 +/- 0.000000e+00) [K]
    Van der Waals (Tail)/kʙ 0.000000e+00 ( 0.000000e+00 +/- 0.000000e+00) [K]
    Coulombic Real/kʙ       0.000000e+00 ( 0.000000e+00 +/- 0.000000e+00) [K]
    Coulombic Fourier/kʙ    0.000000e+00 ( 0.000000e+00 +/- 0.000000e+00) [K]
Molecule-molecule
    Van der Waals/kʙ       -1.109581e+05 (-1.112234e+05 +/- 0.000000e+00) [K]
    Van der Waals (Tail)/kʙ-4.820942e+03 (-4.771322e+03 +/- 0.000000e+00) [K]
    Coulombic Real/kʙ      -3.418630e+04 (-3.177548e+04 +/- 0.000000e+00) [K]
    Coulombic Fourier/kʙ   -8.197951e+03 (-7.670275e+03 +/- 0.000000e+00) [K]
    Molecule Intra/kʙ       0.000000e+00 ( 0.000000e+00 +/- 0.000000e+00) [K]

Current cycle: 500 out of 5000
===============================================================================

Box:      18.88936   0.00000   0.00000  Average:  18.88391   0.00000   0.00000
           0.00000  18.88936   0.00000             0.00000  18.88391   0.00000
           0.00000   0.00000  18.88936             0.00000   0.00000  18.88391
Lengths:  18.88936  18.88936  18.88936  Average:  18.88391  18.88391  18.88391
Angles:   90.00000  90.00000  90.00000  Average:  90.00000  90.00000  90.00000
Rectangular boundary conditions

net charge:   0.00000000

component 0 (CO2) lambda:  0 occupancy:  1 (1.000000)
    net charge:   0.00000000 [e]

Amount of molecules per component :
-------------------------------------------------------------------------------
Component 0 (CO2)
    molecules:      1.000000e+02 molecules  (1.000000e+02 +/- 0.000000e+00)
    number density: 1.483707e-02 molec./A^3 (1.485359e-02 +/- 0.000000e+00)
    density:        1.084022e+03 kg/m^3     (1.085229e+03 +/- 0.000000e+00)

Average pressure tensor: 
-------------------------------------------------------------------------------
 3.1372e+02 -1.5124e+01 -6.2927e+01 +/- 0.0000e+00 0.0000e+00 0.0000e+00 [bar]
-1.5124e+01  1.0648e+02  1.4388e+01 +/- 0.0000e+00 0.0000e+00 0.0000e+00 [bar]
-6.2927e+01  1.4388e+01  2.6259e+01 +/- 0.0000e+00 0.0000e+00 0.0000e+00 [bar]
Ideal-gas pressure:   5.126903e+02 +/ 0.000000e+00 [bar]
Excess pressure:     -3.638715e+02 +/ 0.000000e+00 [bar]
Pressure:             1.488187e+02 +/ 0.000000e+00 [bar]

Total potential energy/kʙ  -1.513679e+05 (-1.553448e+05 +/- 0.000000e+00) [K]
-------------------------------------------------------------------------------
ExternalField-molecule
    Van der Waals/kʙ        0.000000e+00 ( 0.000000e+00 +/- 0.000000e+00) [K]
Framework-molecule
    Van der Waals/kʙ        0.000000e+00 ( 0.000000e+00 +/- 0.000000e+00) [K]
    Van der Waals (Tail)/kʙ 0.000000e+00 ( 0.000000e+00 +/- 0.000000e+00) [K]
    Coulombic Real/kʙ       0.000000e+00 ( 0.000000e+00 +/- 0.000000e+00) [K]
    Coulombic Fourier/kʙ    0.000000e+00 ( 0.000000e+00 +/- 0.000000e+00) [K]
Molecule-molecule
    Van der Waals/kʙ       -1.065756e+05 (-1.110175e+05 +/- 0.000000e+00) [K]
    Van der Waals (Tail)/kʙ-4.760548e+03 (-4.764582e+03 +/- 0.000000e+00) [K]
    Coulombic Real/kʙ      -3.168493e+04 (-3.182472e+04 +/- 0.000000e+00) [K]
    Coulombic Fourier/kʙ   -8.346853e+03 (-7.738005e+03 +/- 0.000000e+00) [K]
    Molecule Intra/kʙ       0.000000e+00 ( 0.000000e+00 +/- 0.000000e+00) [K]

Current cycle: 600 out of 5000
===============================================================================

Box:      19.14510   0.00000   0.00000  Average:  18.90715   0.00000   0.00000
           0.00000  19.14510   0.00000             0.00000  18.90715   0.00000
           0.00000   0.00000  19.14510             0.00000   0.00000  18.90715
Lengths:  19.14510  19.14510  19.14510  Average:  18.90715  18.90715  18.90715
Angles:   90.00000  90.00000  90.00000  Average:  90.00000  90.00000  90.00000
Rectangular boundary conditions

net charge:   0.00000000

component 0 (CO2) lambda:  0 occupancy:  1 (1.000000)
    net charge:   0.00000000 [e]

Amount of molecules per component :
-------------------------------------------------------------------------------
Component 0 (CO2)
    molecules:      1.000000e+02 molecules  (1.000000e+02 +/- 0.000000e+00)
    number density: 1.425040e-02 molec./A^3 (1.479932e-02 +/- 0.000000e+00)
    density:        1.041159e+03 kg/m^3     (1.081264e+03 +/- 0.000000e+00)

Average pressure tensor: 
-------------------------------------------------------------------------------
 2.6759e+02  1.5866e+01  5.2316e+00 +/- 0.0000e+00 0.0000e+00 0.0000e+00 [bar]
 1.5866e+01  8.8096e+01  2.1748e+01 +/- 0.0000e+00 0.0000e+00 0.0000e+00 [bar]
 5.2316e+00  2.1748e+01  6.4830e+01 +/- 0.0000e+00 0.0000e+00 0.0000e+00 [bar]
Ideal-gas pressure:   5.108172e+02 +/ 0.000000e+00 [bar]
Excess pressure:     -3.706464e+02 +/ 0.000000e+00 [bar]
Pressure:             1.401708e+02 +/ 0.000000e+00 [bar]

Total potential energy/kʙ  -1.500816e+05 (-1.552077e+05 +/- 0.000000e+00) [K]
-------------------------------------------------------------------------------
ExternalField-molecule
    Van der Waals/kʙ        0.000000e+00 ( 0.000000e+00 +/- 0.000000e+00) [K]
Framework-molecule
    Van der Waals/kʙ        0.000000e+00 ( 0.000000e+00 +/- 0.000000e+00) [K]
    Van der Waals (Tail)/kʙ 0.000000e+00 ( 0.000000e+00 +/- 0.000000e+00) [K]
    Coulombic Real/kʙ       0.000000e+00 ( 0.000000e+00 +/- 0.000000e+00) [K]
    Coulombic Fourier/kʙ    0.000000e+00 ( 0.000000e+00 +/- 0.000000e+00) [K]
Molecule-molecule
    Van der Waals/kʙ       -1.077284e+05 (-1.105034e+05 +/- 0.000000e+00) [K]
    Van der Waals (Tail)/kʙ-4.572312e+03 (-4.745402e+03 +/- 0.000000e+00) [K]
    Coulombic Real/kʙ      -3.017722e+04 (-3.214984e+04 +/- 0.000000e+00) [K]
    Coulombic Fourier/kʙ   -7.603648e+03 (-7.809002e+03 +/- 0.000000e+00) [K]
    Molecule Intra/kʙ       0.000000e+00 ( 0.000000e+00 +/- 0.000000e+00) [K]

Current cycle: 700 out of 5000
===============================================================================

Box:      19.75052   0.00000   0.00000  Average:  18.97870   0.00000   0.00000
           0.00000  19.75052   0.00000             0.00000  18.97870   0.00000
           0.00000   0.00000  19.75052             0.00000   0.00000  18.97870
Lengths:  19.75052  19.75052  19.75052  Average:  18.97870  18.97870  18.97870
Angles:   90.00000  90.00000  90.00000  Average:  90.00000  90.00000  90.00000
Rectangular boundary conditions

net charge:   0.00000000

component 0 (CO2) lambda:  0 occupancy:  1 (1.000000)
    net charge:   0.00000000 [e]

Amount of molecules per component :
-------------------------------------------------------------------------------
Component 0 (CO2)
    molecules:      1.000000e+02 molecules  (1.000000e+02 +/- 0.000000e+00)
    number density: 1.297970e-02 molec./A^3 (1.464180e-02 +/- 0.000000e+00)
    density:        9.483191e+02 kg/m^3     (1.069755e+03 +/- 0.000000e+00)

Average pressure tensor: 
-------------------------------------------------------------------------------
 1.7828e+02  1.2222e+01  7.0514e+00 +/- 0.0000e+00 0.0000e+00 0.0000e+00 [bar]
 1.2222e+01  1.0402e+02  1.5435e+01 +/- 0.0000e+00 0.0000e+00 0.0000e+00 [bar]
 7.0514e+00  1.5435e+01  9.8588e+01 +/- 0.0000e+00 0.0000e+00 0.0000e+00 [bar]
Ideal-gas pressure:   5.053803e+02 +/ 0.000000e+00 [bar]
Excess pressure:     -3.784170e+02 +/ 0.000000e+00 [bar]
Pressure:             1.269633e+02 +/ 0.000000e+00 [bar]

Total potential energy/kʙ  -1.405103e+05 (-1.534920e+05 +/- 0.000000e+00) [K]
-------------------------------------------------------------------------------
ExternalField-molecule
    Van der Waals/kʙ        0.000000e+00 ( 0.000000e+00 +/- 0.000000e+00) [K]
Framework-molecule
    Van der Waals/kʙ        0.000000e+00 ( 0.000000e+00 +/- 0.000000e+00) [K]
    Van der Waals (Tail)/kʙ 0.000000e+00 ( 0.000000e+00 +/- 0.000000e+00) [K]
    Coulombic Real/kʙ       0.000000e+00 ( 0.000000e+00 +/- 0.000000e+00) [K]
    Coulombic Fourier/kʙ    0.000000e+00 ( 0.000000e+00 +/- 0.000000e+00) [K]
Molecule-molecule
    Van der Waals/kʙ       -1.004339e+05 (-1.092565e+05 +/- 0.000000e+00) [K]
    Van der Waals (Tail)/kʙ-4.164600e+03 (-4.693731e+03 +/- 0.000000e+00) [K]
    Coulombic Real/kʙ      -2.840214e+04 (-3.181854e+04 +/- 0.000000e+00) [K]
    Coulombic Fourier/kʙ   -7.509651e+03 (-7.723137e+03 +/- 0.000000e+00) [K]
    Molecule Intra/kʙ       0.000000e+00 ( 0.000000e+00 +/- 0.000000e+00) [K]

Current cycle: 800 out of 5000
===============================================================================

Box:      19.51352   0.00000   0.00000  Average:  19.07165   0.00000   0.00000
           0.00000  19.51352   0.00000             0.00000  19.07165   0.00000
           0.00000   0.00000  19.51352             0.00000   0.00000  19.07165
Lengths:  19.51352  19.51352  19.51352  Average:  19.07165  19.07165  19.07165
Angles:   90.00000  90.00000  90.00000  Average:  90.00000  90.00000  90.00000
Rectangular boundary conditions

net charge:   0.00000000

component 0 (CO2) lambda:  0 occupancy:  1 (1.000000)
    net charge:   0.00000000 [e]

Amount of molecules per component :
-------------------------------------------------------------------------------
Component 0 (CO2)
    molecules:      1.000000e+02 molecules  (1.000000e+02 +/- 0.000000e+00)
    number density: 1.345838e-02 molec./A^3 (1.444184e-02 +/- 0.000000e+00)
    density:        9.832926e+02 kg/m^3     (1.055146e+03 +/- 0.000000e+00)

Average pressure tensor: 
-------------------------------------------------------------------------------
 1.3209e+02  1.2278e+01 -1.2527e+01 +/- 0.0000e+00 0.0000e+00 0.0000e+00 [bar]
 1.2278e+01  3.9431e+01  2.1293e+01 +/- 0.0000e+00 0.0000e+00 0.0000e+00 [bar]
-1.2527e+01  2.1293e+01  8.1393e+01 +/- 0.0000e+00 0.0000e+00 0.0000e+00 [bar]
Ideal-gas pressure:   4.984784e+02 +/ 0.000000e+00 [bar]
Excess pressure:     -4.141753e+02 +/ 0.000000e+00 [bar]
Pressure:             8.430312e+01 +/ 0.000000e+00 [bar]

Total potential energy/kʙ  -1.364958e+05 (-1.513643e+05 +/- 0.000000e+00) [K]
-------------------------------------------------------------------------------
ExternalField-molecule
    Van der Waals/kʙ        0.000000e+00 ( 0.000000e+00 +/- 0.000000e+00) [K]
Framework-molecule
    Van der Waals/kʙ        0.000000e+00 ( 0.000000e+00 +/- 0.000000e+00) [K]
    Van der Waals (Tail)/kʙ 0.000000e+00 ( 0.000000e+00 +/- 0.000000e+00) [K]
    Coulombic Real/kʙ       0.000000e+00 ( 0.000000e+00 +/- 0.000000e+00) [K]
    Coulombic Fourier/kʙ    0.000000e+00 ( 0.000000e+00 +/- 0.000000e+00) [K]
Molecule-molecule
    Van der Waals/kʙ       -1.012181e+05 (-1.078921e+05 +/- 0.000000e+00) [K]
    Van der Waals (Tail)/kʙ-4.318189e+03 (-4.632177e+03 +/- 0.000000e+00) [K]
    Coulombic Real/kʙ      -2.400719e+04 (-3.120098e+04 +/- 0.000000e+00) [K]
    Coulombic Fourier/kʙ   -6.952344e+03 (-7.639027e+03 +/- 0.000000e+00) [K]
    Molecule Intra/kʙ       0.000000e+00 ( 0.000000e+00 +/- 0.000000e+00) [K]

Current cycle: 900 out of 5000
===============================================================================

Box:      19.26953   0.00000   0.00000  Average:  19.09420   0.00000   0.00000
           0.00000  19.26953   0.00000             0.00000  19.09420   0.00000
           0.00000   0.00000  19.26953             0.00000   0.00000  19.09420
Lengths:  19.26953  19.26953  19.26953  Average:  19.09420  19.09420  19.09420
Angles:   90.00000  90.00000  90.00000  Average:  90.00000  90.00000  90.00000
Rectangular boundary conditions

net charge:   0.00000000

component 0 (CO2) lambda:  0 occupancy:  1 (1.000000)
    net charge:   0.00000000 [e]

Amount of molecules per component :
-------------------------------------------------------------------------------
Component 0 (CO2)
    molecules:      1.000000e+02 molecules  (1.000000e+02 +/- 0.000000e+00)
    number density: 1.397611e-02 molec./A^3 (1.438935e-02 +/- 0.000000e+00)
    density:        1.021119e+03 kg/m^3     (1.051310e+03 +/- 0.000000e+00)

Average pressure tensor: 
-------------------------------------------------------------------------------
 1.1472e+02  3.6697e+01 -1.5007e+01 +/- 0.0000e+00 0.0000e+00 0.0000e+00 [bar]
 3.6697e+01  4.9088e+01  5.0553e+01 +/- 0.0000e+00 0.0000e+00 0.0000e+00 [bar]
-1.5007e+01  5.0553e+01  9.9995e+01 +/- 0.0000e+00 0.0000e+00 0.0000e+00 [bar]
Ideal-gas pressure:   4.966664e+02 +/ 0.000000e+00 [bar]
Excess pressure:     -4.087308e+02 +/ 0.000000e+00 [bar]
Pressure:             8.793554e+01 +/ 0.000000e+00 [bar]

Total potential energy/kʙ  -1.479656e+05 (-1.507691e+05 +/- 0.000000e+00) [K]
-------------------------------------------------------------------------------
ExternalField-molecule
    Van der Waals/kʙ        0.000000e+00 ( 0.000000e+00 +/- 0.000000e+00) [K]
Framework-molecule
    Van der Waals/kʙ        0.000000e+00 ( 0.000000e+00 +/- 0.000000e+00) [K]
    Van der Waals (Tail)/kʙ 0.000000e+00 ( 0.000000e+00 +/- 0.000000e+00) [K]
    Coulombic Real/kʙ       0.000000e+00 ( 0.000000e+00 +/- 0.000000e+00) [K]
    Coulombic Fourier/kʙ    0.000000e+00 ( 0.000000e+00 +/- 0.000000e+00) [K]
Molecule-molecule
    Van der Waals/kʙ       -1.069578e+05 (-1.075164e+05 +/- 0.000000e+00) [K]
    Van der Waals (Tail)/kʙ-4.484304e+03 (-4.617734e+03 +/- 0.000000e+00) [K]
    Coulombic Real/kʙ      -2.863518e+04 (-3.099933e+04 +/- 0.000000e+00) [K]
    Coulombic Fourier/kʙ   -7.888295e+03 (-7.635686e+03 +/- 0.000000e+00) [K]
    Molecule Intra/kʙ       0.000000e+00 ( 0.000000e+00 +/- 0.000000e+00) [K]

Current cycle: 1000 out of 5000
===============================================================================

Box:      19.20968   0.00000   0.00000  Average:  19.10184   0.00000   0.00000
           0.00000  19.20968   0.00000             0.00000  19.10184   0.00000
           0.00000   0.00000  19.20968             0.00000   0.00000  19.10184
Lengths:  19.20968  19.20968  19.20968  Average:  19.10184  19.10184  19.10184
Angles:   90.00000  90.00000  90.00000  Average:  90.00000  90.00000  90.00000
Rectangular boundary conditions

net charge:   0.00000000

component 0 (CO2) lambda:  0 occupancy:  1 (1.000000)
    net charge:   0.00000000 [e]

Amount of molecules per component :
-------------------------------------------------------------------------------
Component 0 (CO2)
    molecules:      1.000000e+02 molecules  (1.000000e+02 +/- 0.000000e+00)
    number density: 1.410715e-02 molec./A^3 (1.436994e-02 +/- 0.000000e+00)
    density:        1.030693e+03 kg/m^3     (1.049892e+03 +/- 0.000000e+00)

Average pressure tensor: 
-------------------------------------------------------------------------------
 9.5438e+01  3.6308e+01  4.9287e+00 +/- 0.0000e+00 0.0000e+00 0.0000e+00 [bar]
 3.6308e+01  4.4213e+01  3.5470e+01 +/- 0.0000e+00 0.0000e+00 0.0000e+00 [bar]
 4.9287e+00  3.5470e+01  7.4961e+01 +/- 0.0000e+00 0.0000e+00 0.0000e+00 [bar]
Ideal-gas pressure:   4.959965e+02 +/ 0.000000e+00 [bar]
Excess pressure:     -4.244591e+02 +/ 0.000000e+00 [bar]
Pressure:             7.153740e+01 +/ 0.000000e+00 [bar]

Total potential energy/kʙ  -1.490767e+05 (-1.505194e+05 +/- 0.000000e+00) [K]
-------------------------------------------------------------------------------
ExternalField-molecule
    Van der Waals/kʙ        0.000000e+00 ( 0.000000e+00 +/- 0.000000e+00) [K]
Framework-molecule
    Van der Waals/kʙ        0.000000e+00 ( 0.000000e+00 +/- 0.000000e+00) [K]
    Van der Waals (Tail)/kʙ 0.000000e+00 ( 0.000000e+00 +/- 0.000000e+00) [K]
    Coulombic Real/kʙ       0.000000e+00 ( 0.000000e+00 +/- 0.000000e+00) [K]
    Coulombic Fourier/kʙ    0.000000e+00 ( 0.000000e+00 +/- 0.000000e+00) [K]
Molecule-molecule
    Van der Waals/kʙ       -1.080882e+05 (-1.074047e+05 +/- 0.000000e+00) [K]
    Van der Waals (Tail)/kʙ-4.526348e+03 (-4.611790e+03 +/- 0.000000e+00) [K]
    Coulombic Real/kʙ      -2.893265e+04 (-3.085792e+04 +/- 0.000000e+00) [K]
    Coulombic Fourier/kʙ   -7.529561e+03 (-7.645015e+03 +/- 0.000000e+00) [K]
    Molecule Intra/kʙ       0.000000e+00 ( 0.000000e+00 +/- 0.000000e+00) [K]

Current cycle: 1100 out of 5000
===============================================================================

Box:      19.09120   0.00000   0.00000  Average:  19.10816   0.00000   0.00000
           0.00000  19.09120   0.00000             0.00000  19.10816   0.00000
           0.00000   0.00000  19.09120             0.00000   0.00000  19.10816
Lengths:  19.09120  19.09120  19.09120  Average:  19.10816  19.10816  19.10816
Angles:   90.00000  90.00000  90.00000  Average:  90.00000  90.00000  90.00000
Rectangular boundary conditions

net charge:   0.00000000

component 0 (CO2) lambda:  0 occupancy:  1 (1.000000)
    net charge:   0.00000000 [e]

Amount of molecules per component :
-------------------------------------------------------------------------------
Component 0 (CO2)
    molecules:      1.000000e+02 molecules  (1.000000e+02 +/- 0.000000e+00)
    number density: 1.437145e-02 molec./A^3 (1.435406e-02 +/- 0.000000e+00)
    density:        1.050003e+03 kg/m^3     (1.048733e+03 +/- 0.000000e+00)

Average pressure tensor: 
-------------------------------------------------------------------------------
 6.6763e+01  2.7460e+01  6.8574e+00 +/- 0.0000e+00 0.0000e+00 0.0000e+00 [bar]
 2.7460e+01  4.0411e+01  5.5335e+01 +/- 0.0000e+00 0.0000e+00 0.0000e+00 [bar]
 6.8574e+00  5.5335e+01  6.3043e+01 +/- 0.0000e+00 0.0000e+00 0.0000e+00 [bar]
Ideal-gas pressure:   4.954486e+02 +/ 0.000000e+00 [bar]
Excess pressure:     -4.387096e+02 +/ 0.000000e+00 [bar]
Pressure:             5.673902e+01 +/ 0.000000e+00 [bar]

Total potential energy/kʙ  -1.549283e+05 (-1.507367e+05 +/- 0.000000e+00) [K]
-------------------------------------------------------------------------------
ExternalField-molecule
    Van der Waals/kʙ        0.000000e+00 ( 0.000000e+00 +/- 0.000000e+00) [K]
Framework-molecule
    Van der Waals/kʙ        0.000000e+00 ( 0.000000e+00 +/- 0.000000e+00) [K]
    Van der Waals (Tail)/kʙ 0.000000e+00 ( 0.000000e+00 +/- 0.000000e+00) [K]
    Coulombic Real/kʙ       0.000000e+00 ( 0.000000e+00 +/- 0.000000e+00) [K]
    Coulombic Fourier/kʙ    0.000000e+00 ( 0.000000e+00 +/- 0.000000e+00) [K]
Molecule-molecule
    Van der Waals/kʙ       -1.085106e+05 (-1.073904e+05 +/- 0.000000e+00) [K]
    Van der Waals (Tail)/kʙ-4.611151e+03 (-4.606941e+03 +/- 0.000000e+00) [K]
    Coulombic Real/kʙ      -3.336073e+04 (-3.105900e+04 +/- 0.000000e+00) [K]
    Coulombic Fourier/kʙ   -8.445904e+03 (-7.680392e+03 +/- 0.000000e+00) [K]
    Molecule Intra/kʙ       0.000000e+00 ( 0.000000e+00 +/- 0.000000e+00) [K]

Current cycle: 1200 out of 5000
===============================================================================

Box:      18.97838   0.00000   0.00000  Average:  19.10802   0.00000   0.00000
           0.00000  18.97838   0.00000             0.00000  19.10802   0.00000
           0.00000   0.00000  18.97838             0.00000   0.00000  19.10802
Lengths:  18.97838  18.97838  18.97838  Average:  19.10802  19.10802  19.10802
Angles:   90.00000  90.00000  90.00000  Average:  90.00000  90.00000  90.00000
Rectangular boundary conditions

net charge:   0.00000000

component 0 (CO2) lambda:  0 occupancy:  1 (1.000000)
    net charge:   0.00000000 [e]

Amount of molecules per component :
-------------------------------------------------------------------------------
Component 0 (CO2)
    molecules:      1.000000e+02 molecules  (1.000000e+02 +/- 0.000000e+00)
    number density: 1.462927e-02 molec./A^3 (1.435280e-02 +/- 0.000000e+00)
    density:        1.068839e+03 kg/m^3     (1.048640e+03 +/- 0.000000e+00)

Average pressure tensor: 
-------------------------------------------------------------------------------
 7.0159e+01  2.8548e+01 -4.9459e+00 +/- 0.0000e+00 0.0000e+00 0.0000e+00 [bar]
 2.8548e+01  2.4886e+01  6.2485e+01 +/- 0.0000e+00 0.0000e+00 0.0000e+00 [bar]
-4.9459e+00  6.2485e+01  7.8682e+01 +/- 0.0000e+00 0.0000e+00 0.0000e+00 [bar]
Ideal-gas pressure:   4.954050e+02 +/ 0.000000e+00 [bar]
Excess pressure:     -4.374961e+02 +/ 0.000000e+00 [bar]
Pressure:             5.790899e+01 +/ 0.000000e+00 [bar]

Total potential energy/kʙ  -1.537890e+05 (-1.508499e+05 +/- 0.000000e+00) [K]
-------------------------------------------------------------------------------
ExternalField-molecule
    Van der Waals/kʙ        0.000000e+00 ( 0.000000e+00 +/- 0.000000e+00) [K]
Framework-molecule
    Van der Waals/kʙ        0.000000e+00 ( 0.000000e+00 +/- 0.000000e+00) [K]
    Van der Waals (Tail)/kʙ 0.000000e+00 ( 0.000000e+00 +/- 0.000000e+00) [K]
    Coulombic Real/kʙ       0.000000e+00 ( 0.000000e+00 +/- 0.000000e+00) [K]
    Coulombic Fourier/kʙ    0.000000e+00 ( 0.000000e+00 +/- 0.000000e+00) [K]
Molecule-molecule
    Van der Waals/kʙ       -1.102172e+05 (-1.074103e+05 +/- 0.000000e+00) [K]
    Van der Waals (Tail)/kʙ-4.693872e+03 (-4.607364e+03 +/- 0.000000e+00) [K]
    Coulombic Real/kʙ      -3.169883e+04 (-3.115963e+04 +/- 0.000000e+00) [K]
    Coulombic Fourier/kʙ   -7.179142e+03 (-7.672656e+03 +/- 0.000000e+00) [K]
    Molecule Intra/kʙ       0.000000e+00 ( 0.000000e+00 +/- 0.000000e+00) [K]

Current cycle: 1300 out of 5000
===============================================================================

Box:      18.91627   0.00000   0.00000  Average:  19.08700   0.00000   0.00000
           0.00000  18.91627   0.00000             0.00000  19.08700   0.00000
           0.00000   0.00000  18.91627             0.00000   0.00000  19.08700
Lengths:  18.91627  18.91627  18.91627  Average:  19.08700  19.08700  19.08700
Angles:   90.00000  90.00000  90.00000  Average:  90.00000  90.00000  90.00000
Rectangular boundary conditions

net charge:   0.00000000

component 0 (CO2) lambda:  0 occupancy:  1 (1.000000)
    net charge:   0.00000000 [e]

Amount of molecules per component :
-------------------------------------------------------------------------------
Component 0 (CO2)
    molecules:      1.000000e+02 molecules  (1.000000e+02 +/- 0.000000e+00)
    number density: 1.477385e-02 molec./A^3 (1.440051e-02 +/- 0.000000e+00)
    density:        1.079403e+03 kg/m^3     (1.052126e+03 +/- 0.000000e+00)

Average pressure tensor: 
-------------------------------------------------------------------------------
 4.3445e+01  3.2803e+01 -2.2820e+01 +/- 0.0000e+00 0.0000e+00 0.0000e+00 [bar]
 3.2803e+01  5.0046e+01  5.4286e+01 +/- 0.0000e+00 0.0000e+00 0.0000e+00 [bar]
-2.2820e+01  5.4286e+01  1.0600e+02 +/- 0.0000e+00 0.0000e+00 0.0000e+00 [bar]
Ideal-gas pressure:   4.970517e+02 +/ 0.000000e+00 [bar]
Excess pressure:     -4.305549e+02 +/ 0.000000e+00 [bar]
Pressure:             6.649677e+01 +/ 0.000000e+00 [bar]

Total potential energy/kʙ  -1.532708e+05 (-1.512093e+05 +/- 0.000000e+00) [K]
-------------------------------------------------------------------------------
ExternalField-molecule
    Van der Waals/kʙ        0.000000e+00 ( 0.000000e+00 +/- 0.000000e+00) [K]
Framework-molecule
    Van der Waals/kʙ        0.000000e+00 ( 0.000000e+00 +/- 0.000000e+00) [K]
    Van der Waals (Tail)/kʙ 0.000000e+00 ( 0.000000e+00 +/- 0.000000e+00) [K]
    Coulombic Real/kʙ       0.000000e+00 ( 0.000000e+00 +/- 0.000000e+00) [K]
    Coulombic Fourier/kʙ    0.000000e+00 ( 0.000000e+00 +/- 0.000000e+00) [K]
Molecule-molecule
    Van der Waals/kʙ       -1.113124e+05 (-1.078085e+05 +/- 0.000000e+00) [K]
    Van der Waals (Tail)/kʙ-4.740263e+03 (-4.622447e+03 +/- 0.000000e+00) [K]
    Coulombic Real/kʙ      -2.882910e+04 (-3.108903e+04 +/- 0.000000e+00) [K]
    Coulombic Fourier/kʙ   -8.389028e+03 (-7.689352e+03 +/- 0.000000e+00) [K]
    Molecule Intra/kʙ       0.000000e+00 ( 0.000000e+00 +/- 0.000000e+00) [K]

Current cycle: 1400 out of 5000
===============================================================================

Box:      18.74756   0.00000   0.00000  Average:  19.06426   0.00000   0.00000
           0.00000  18.74756   0.00000             0.00000  19.06426   0.00000
           0.00000   0.00000  18.74756             0.00000   0.00000  19.06426
Lengths:  18.74756  18.74756  18.74756  Average:  19.06426  19.06426  19.06426
Angles:   90.00000  90.00000  90.00000  Average:  90.00000  90.00000  90.00000
Rectangular boundary conditions

net charge:   0.00000000

component 0 (CO2) lambda:  0 occupancy:  1 (1.000000)
    net charge:   0.00000000 [e]

Amount of molecules per component :
-------------------------------------------------------------------------------
Component 0 (CO2)
    molecules:      1.000000e+02 molecules  (1.000000e+02 +/- 0.000000e+00)
    number density: 1.517630e-02 molec./A^3 (1.445249e-02 +/- 0.000000e+00)
    density:        1.108807e+03 kg/m^3     (1.055923e+03 +/- 0.000000e+00)

Average pressure tensor: 
-------------------------------------------------------------------------------
 7.3848e+01  4.6349e+01 -2.7251e+01 +/- 0.0000e+00 0.0000e+00 0.0000e+00 [bar]
 4.6349e+01  5.3374e+01  4.5317e+01 +/- 0.0000e+00 0.0000e+00 0.0000e+00 [bar]
-2.7251e+01  4.5317e+01  9.7247e+01 +/- 0.0000e+00 0.0000e+00 0.0000e+00 [bar]
Ideal-gas pressure:   4.988458e+02 +/ 0.000000e+00 [bar]
Excess pressure:     -4.240228e+02 +/ 0.000000e+00 [bar]
Pressure:             7.482297e+01 +/ 0.000000e+00 [bar]

Total potential energy/kʙ  -1.598279e+05 (-1.517400e+05 +/- 0.000000e+00) [K]
-------------------------------------------------------------------------------
ExternalField-molecule
    Van der Waals/kʙ        0.000000e+00 ( 0.000000e+00 +/- 0.000000e+00) [K]
Framework-molecule
    Van der Waals/kʙ        0.000000e+00 ( 0.000000e+00 +/- 0.000000e+00) [K]
    Van der Waals (Tail)/kʙ 0.000000e+00 ( 0.000000e+00 +/- 0.000000e+00) [K]
    Coulombic Real/kʙ       0.000000e+00 ( 0.000000e+00 +/- 0.000000e+00) [K]
    Coulombic Fourier/kʙ    0.000000e+00 ( 0.000000e+00 +/- 0.000000e+00) [K]
Molecule-molecule
    Van der Waals/kʙ       -1.175038e+05 (-1.082303e+05 +/- 0.000000e+00) [K]
    Van der Waals (Tail)/kʙ-4.869391e+03 (-4.638762e+03 +/- 0.000000e+00) [K]
    Coulombic Real/kʙ      -3.045817e+04 (-3.116941e+04 +/- 0.000000e+00) [K]
    Coulombic Fourier/kʙ   -6.996545e+03 (-7.701531e+03 +/- 0.000000e+00) [K]
    Molecule Intra/kʙ       0.000000e+00 ( 0.000000e+00 +/- 0.000000e+00) [K]

Current cycle: 1500 out of 5000
===============================================================================

Box:      18.88277   0.00000   0.00000  Average:  19.04042   0.00000   0.00000
           0.00000  18.88277   0.00000             0.00000  19.04042   0.00000
           0.00000   0.00000  18.88277             0.00000   0.00000  19.04042
Lengths:  18.88277  18.88277  18.88277  Average:  19.04042  19.04042  19.04042
Angles:   90.00000  90.00000  90.00000  Average:  90.00000  90.00000  90.00000
Rectangular boundary conditions

net charge:   0.00000000

component 0 (CO2) lambda:  0 occupancy:  1 (1.000000)
    net charge:   0.00000000 [e]

Amount of molecules per component :
-------------------------------------------------------------------------------
Component 0 (CO2)
    molecules:      1.000000e+02 molecules  (1.000000e+02 +/- 0.000000e+00)
    number density: 1.485261e-02 molec./A^3 (1.450760e-02 +/- 0.000000e+00)
    density:        1.085157e+03 kg/m^3     (1.059950e+03 +/- 0.000000e+00)

Average pressure tensor: 
-------------------------------------------------------------------------------
 9.0279e+01  4.0748e+01 -3.0774e+01 +/- 0.0000e+00 0.0000e+00 0.0000e+00 [bar]
 4.0748e+01  4.6720e+01  4.4953e+01 +/- 0.0000e+00 0.0000e+00 0.0000e+00 [bar]
-3.0774e+01  4.4953e+01  6.5262e+01 +/- 0.0000e+00 0.0000e+00 0.0000e+00 [bar]
Ideal-gas pressure:   5.007481e+02 +/ 0.000000e+00 [bar]
Excess pressure:     -4.333277e+02 +/ 0.000000e+00 [bar]
Pressure:             6.742040e+01 +/ 0.000000e+00 [bar]

Total potential energy/kʙ  -1.630980e+05 (-1.524978e+05 +/- 0.000000e+00) [K]
-------------------------------------------------------------------------------
ExternalField-molecule
    Van der Waals/kʙ        0.000000e+00 ( 0.000000e+00 +/- 0.000000e+00) [K]
Framework-molecule
    Van der Waals/kʙ        0.000000e+00 ( 0.000000e+00 +/- 0.000000e+00) [K]
    Van der Waals (Tail)/kʙ 0.000000e+00 ( 0.000000e+00 +/- 0.000000e+00) [K]
    Coulombic Real/kʙ       0.000000e+00 ( 0.000000e+00 +/- 0.000000e+00) [K]
    Coulombic Fourier/kʙ    0.000000e+00 ( 0.000000e+00 +/- 0.000000e+00) [K]
Molecule-molecule
    Van der Waals/kʙ       -1.136859e+05 (-1.087788e+05 +/- 0.000000e+00) [K]
    Van der Waals (Tail)/kʙ-4.765534e+03 (-4.656345e+03 +/- 0.000000e+00) [K]
    Coulombic Real/kʙ      -3.586000e+04 (-3.133597e+04 +/- 0.000000e+00) [K]
    Coulombic Fourier/kʙ   -8.786511e+03 (-7.726656e+03 +/- 0.000000e+00) [K]
    Molecule Intra/kʙ       0.000000e+00 ( 0.000000e+00 +/- 0.000000e+00) [K]

Current cycle: 1600 out of 5000
===============================================================================

Box:      19.02154   0.00000   0.00000  Average:  19.02934   0.00000   0.00000
           0.00000  19.02154   0.00000             0.00000  19.02934   0.00000
           0.00000   0.00000  19.02154             0.00000   0.00000  19.02934
Lengths:  19.02154  19.02154  19.02154  Average:  19.02934  19.02934  19.02934
Angles:   90.00000  90.00000  90.00000  Average:  90.00000  90.00000  90.00000
Rectangular boundary conditions

net charge:   0.00000000

component 0 (CO2) lambda:  0 occupancy:  1 (1.000000)
    net charge:   0.00000000 [e]

Amount of molecules per component :
-------------------------------------------------------------------------------
Component 0 (CO2)
    molecules:      1.000000e+02 molecules  (1.000000e+02 +/- 0.000000e+00)
    number density: 1.452991e-02 molec./A^3 (1.453212e-02 +/- 0.000000e+00)
    density:        1.061580e+03 kg/m^3     (1.061742e+03 +/- 0.000000e+00)

Average pressure tensor: 
-------------------------------------------------------------------------------
 1.0730e+02  6.3970e+01 -2.2955e+01 +/- 0.0000e+00 0.0000e+00 0.0000e+00 [bar]
 6.3970e+01  3.1994e+01  4.1149e+01 +/- 0.0000e+00 0.0000e+00 0.0000e+00 [bar]
-2.2955e+01  4.1149e+01  5.4507e+01 +/- 0.0000e+00 0.0000e+00 0.0000e+00 [bar]
Ideal-gas pressure:   5.015945e+02 +/ 0.000000e+00 [bar]
Excess pressure:     -4.369942e+02 +/ 0.000000e+00 [bar]
Pressure:             6.460026e+01 +/ 0.000000e+00 [bar]

Total potential energy/kʙ  -1.581532e+05 (-1.529583e+05 +/- 0.000000e+00) [K]
-------------------------------------------------------------------------------
ExternalField-molecule
    Van der Waals/kʙ        0.000000e+00 ( 0.000000e+00 +/- 0.000000e+00) [K]
Framework-molecule
    Van der Waals/kʙ        0.000000e+00 ( 0.000000e+00 +/- 0.000000e+00) [K]
    Van der Waals (Tail)/kʙ 0.000000e+00 ( 0.000000e+00 +/- 0.000000e+00) [K]
    Coulombic Real/kʙ       0.000000e+00 ( 0.000000e+00 +/- 0.000000e+00) [K]
    Coulombic Fourier/kʙ    0.000000e+00 ( 0.000000e+00 +/- 0.000000e+00) [K]
Molecule-molecule
    Van der Waals/kʙ       -1.103398e+05 (-1.089712e+05 +/- 0.000000e+00) [K]
    Van der Waals (Tail)/kʙ-4.661993e+03 (-4.664146e+03 +/- 0.000000e+00) [K]
    Coulombic Real/kʙ      -3.481228e+04 (-3.155824e+04 +/- 0.000000e+00) [K]
    Coulombic Fourier/kʙ   -8.339075e+03 (-7.764708e+03 +/- 0.000000e+00) [K]
    Molecule Intra/kʙ       0.000000e+00 ( 0.000000e+00 +/- 0.000000e+00) [K]

Current cycle: 1700 out of 5000
===============================================================================

Box:      19.03857   0.00000   0.00000  Average:  19.02084   0.00000   0.00000
           0.00000  19.03857   0.00000             0.00000  19.02084   0.00000
           0.00000   0.00000  19.03857             0.00000   0.00000  19.02084
Lengths:  19.03857  19.03857  19.03857  Average:  19.02084  19.02084  19.02084
Angles:   90.00000  90.00000  90.00000  Average:  90.00000  90.00000  90.00000
Rectangular boundary conditions

net charge:   0.00000000

component 0 (CO2) lambda:  0 occupancy:  1 (1.000000)
    net charge:   0.00000000 [e]

Amount of molecules per component :
-------------------------------------------------------------------------------
Component 0 (CO2)
    molecules:      1.000000e+02 molecules  (1.000000e+02 +/- 0.000000e+00)
    number density: 1.449096e-02 molec./A^3 (1.455078e-02 +/- 0.000000e+00)
    density:        1.058734e+03 kg/m^3     (1.063105e+03 +/- 0.000000e+00)

Average pressure tensor: 
-------------------------------------------------------------------------------
 1.1081e+02  6.7303e+01 -1.3857e+01 +/- 0.0000e+00 0.0000e+00 0.0000e+00 [bar]
 6.7303e+01  4.5208e+01  3.1034e+01 +/- 0.0000e+00 0.0000e+00 0.0000e+00 [bar]
-1.3857e+01  3.1034e+01  6.1625e+01 +/- 0.0000e+00 0.0000e+00 0.0000e+00 [bar]
Ideal-gas pressure:   5.022384e+02 +/ 0.000000e+00 [bar]
Excess pressure:     -4.296913e+02 +/ 0.000000e+00 [bar]
Pressure:             7.254715e+01 +/ 0.000000e+00 [bar]

Total potential energy/kʙ  -1.515992e+05 (-1.531310e+05 +/- 0.000000e+00) [K]
-------------------------------------------------------------------------------
ExternalField-molecule
    Van der Waals/kʙ        0.000000e+00 ( 0.000000e+00 +/- 0.000000e+00) [K]
Framework-molecule
    Van der Waals/kʙ        0.000000e+00 ( 0.000000e+00 +/- 0.000000e+00) [K]
    Van der Waals (Tail)/kʙ 0.000000e+00 ( 0.000000e+00 +/- 0.000000e+00) [K]
    Coulombic Real/kʙ       0.000000e+00 ( 0.000000e+00 +/- 0.000000e+00) [K]
    Coulombic Fourier/kʙ    0.000000e+00 ( 0.000000e+00 +/- 0.000000e+00) [K]
Molecule-molecule
    Van der Waals/kʙ       -1.103715e+05 (-1.090917e+05 +/- 0.000000e+00) [K]
    Van der Waals (Tail)/kʙ-4.649495e+03 (-4.669936e+03 +/- 0.000000e+00) [K]
    Coulombic Real/kʙ      -2.939905e+04 (-3.161142e+04 +/- 0.000000e+00) [K]
    Coulombic Fourier/kʙ   -7.179228e+03 (-7.757939e+03 +/- 0.000000e+00) [K]
    Molecule Intra/kʙ       0.000000e+00 ( 0.000000e+00 +/- 0.000000e+00) [K]

Current cycle: 1800 out of 5000
===============================================================================

Box:      18.78643   0.00000   0.00000  Average:  19.01191   0.00000   0.00000
           0.00000  18.78643   0.00000             0.00000  19.01191   0.00000
           0.00000   0.00000  18.78643             0.00000   0.00000  19.01191
Lengths:  18.78643  18.78643  18.78643  Average:  19.01191  19.01191  19.01191
Angles:   90.00000  90.00000  90.00000  Average:  90.00000  90.00000  90.00000
Rectangular boundary conditions

net charge:   0.00000000

component 0 (CO2) lambda:  0 occupancy:  1 (1.000000)
    net charge:   0.00000000 [e]

Amount of molecules per component :
-------------------------------------------------------------------------------
Component 0 (CO2)
    molecules:      1.000000e+02 molecules  (1.000000e+02 +/- 0.000000e+00)
    number density: 1.508228e-02 molec./A^3 (1.457067e-02 +/- 0.000000e+00)
    density:        1.101937e+03 kg/m^3     (1.064558e+03 +/- 0.000000e+00)

Average pressure tensor: 
-------------------------------------------------------------------------------
 1.1927e+02  7.0436e+01 -2.6222e+01 +/- 0.0000e+00 0.0000e+00 0.0000e+00 [bar]
 7.0436e+01  6.3381e+01  2.4932e+01 +/- 0.0000e+00 0.0000e+00 0.0000e+00 [bar]
-2.6222e+01  2.4932e+01  7.5799e+01 +/- 0.0000e+00 0.0000e+00 0.0000e+00 [bar]
Ideal-gas pressure:   5.029250e+02 +/ 0.000000e+00 [bar]
Excess pressure:     -4.167759e+02 +/ 0.000000e+00 [bar]
Pressure:             8.614910e+01 +/ 0.000000e+00 [bar]

Total potential energy/kʙ  -1.545905e+05 (-1.532699e+05 +/- 0.000000e+00) [K]
-------------------------------------------------------------------------------
ExternalField-molecule
    Van der Waals/kʙ        0.000000e+00 ( 0.000000e+00 +/- 0.000000e+00) [K]
Framework-molecule
    Van der Waals/kʙ        0.000000e+00 ( 0.000000e+00 +/- 0.000000e+00) [K]
    Van der Waals (Tail)/kʙ 0.000000e+00 ( 0.000000e+00 +/- 0.000000e+00) [K]
    Coulombic Real/kʙ       0.000000e+00 ( 0.000000e+00 +/- 0.000000e+00) [K]
    Coulombic Fourier/kʙ    0.000000e+00 ( 0.000000e+00 +/- 0.000000e+00) [K]
Molecule-molecule
    Van der Waals/kʙ       -1.107286e+05 (-1.092021e+05 +/- 0.000000e+00) [K]
    Van der Waals (Tail)/kʙ-4.839224e+03 (-4.677196e+03 +/- 0.000000e+00) [K]
    Coulombic Real/kʙ      -3.117474e+04 (-3.164436e+04 +/- 0.000000e+00) [K]
    Coulombic Fourier/kʙ   -7.847991e+03 (-7.746230e+03 +/- 0.000000e+00) [K]
    Molecule Intra/kʙ       0.000000e+00 ( 0.000000e+00 +/- 0.000000e+00) [K]

Current cycle: 1900 out of 5000
===============================================================================

Box:      19.09012   0.00000   0.00000  Average:  19.00742   0.00000   0.00000
           0.00000  19.09012   0.00000             0.00000  19.00742   0.00000
           0.00000   0.00000  19.09012             0.00000   0.00000  19.00742
Lengths:  19.09012  19.09012  19.09012  Average:  19.00742  19.00742  19.00742
Angles:   90.00000  90.00000  90.00000  Average:  90.00000  90.00000  90.00000
Rectangular boundary conditions

net charge:   0.00000000

component 0 (CO2) lambda:  0 occupancy:  1 (1.000000)
    net charge:   0.00000000 [e]

Amount of molecules per component :
-------------------------------------------------------------------------------
Component 0 (CO2)
    molecules:      1.000000e+02 molecules  (1.000000e+02 +/- 0.000000e+00)
    number density: 1.437389e-02 molec./A^3 (1.458026e-02 +/- 0.000000e+00)
    density:        1.050181e+03 kg/m^3     (1.065259e+03 +/- 0.000000e+00)

Average pressure tensor: 
-------------------------------------------------------------------------------
 1.0279e+02  7.9334e+01 -2.5219e+01 +/- 0.0000e+00 0.0000e+00 0.0000e+00 [bar]
 7.9334e+01  5.2045e+01  2.4912e+01 +/- 0.0000e+00 0.0000e+00 0.0000e+00 [bar]
-2.5219e+01  2.4912e+01  8.0463e+01 +/- 0.0000e+00 0.0000e+00 0.0000e+00 [bar]
Ideal-gas pressure:   5.032560e+02 +/ 0.000000e+00 [bar]
Excess pressure:     -4.248221e+02 +/ 0.000000e+00 [bar]
Pressure:             7.843396e+01 +/ 0.000000e+00 [bar]

Total potential energy/kʙ  -1.557603e+05 (-1.534789e+05 +/- 0.000000e+00) [K]
-------------------------------------------------------------------------------
ExternalField-molecule
    Van der Waals/kʙ        0.000000e+00 ( 0.000000e+00 +/- 0.000000e+00) [K]
Framework-molecule
    Van der Waals/kʙ        0.000000e+00 ( 0.000000e+00 +/- 0.000000e+00) [K]
    Van der Waals (Tail)/kʙ 0.000000e+00 ( 0.000000e+00 +/- 0.000000e+00) [K]
    Coulombic Real/kʙ       0.000000e+00 ( 0.000000e+00 +/- 0.000000e+00) [K]
    Coulombic Fourier/kʙ    0.000000e+00 ( 0.000000e+00 +/- 0.000000e+00) [K]
Molecule-molecule
    Van der Waals/kʙ       -1.106747e+05 (-1.093470e+05 +/- 0.000000e+00) [K]
    Van der Waals (Tail)/kʙ-4.611933e+03 (-4.679150e+03 +/- 0.000000e+00) [K]
    Coulombic Real/kʙ      -3.252811e+04 (-3.168900e+04 +/- 0.000000e+00) [K]
    Coulombic Fourier/kʙ   -7.945504e+03 (-7.763761e+03 +/- 0.000000e+00) [K]
    Molecule Intra/kʙ       0.000000e+00 ( 0.000000e+00 +/- 0.000000e+00) [K]

Current cycle: 2000 out of 5000
===============================================================================

Box:      18.95551   0.00000   0.00000  Average:  19.00625   0.00000   0.00000
           0.00000  18.95551   0.00000             0.00000  19.00625   0.00000
           0.00000   0.00000  18.95551             0.00000   0.00000  19.00625
Lengths:  18.95551  18.95551  18.95551  Average:  19.00625  19.00625  19.00625
Angles:   90.00000  90.00000  90.00000  Average:  90.00000  90.00000  90.00000
Rectangular boundary conditions

net charge:   0.00000000

component 0 (CO2) lambda:  0 occupancy:  1 (1.000000)
    net charge:   0.00000000 [e]

Amount of molecules per component :
-------------------------------------------------------------------------------
Component 0 (CO2)
    molecules:      1.000000e+02 molecules  (1.000000e+02 +/- 0.000000e+00)
    number density: 1.468227e-02 molec./A^3 (1.458212e-02 +/- 0.000000e+00)
    density:        1.072712e+03 kg/m^3     (1.065395e+03 +/- 0.000000e+00)

Average pressure tensor: 
-------------------------------------------------------------------------------
 9.1944e+01  7.2845e+01 -1.7588e+01 +/- 0.0000e+00 0.0000e+00 0.0000e+00 [bar]
 7.2845e+01  5.1823e+01  2.5170e+01 +/- 0.0000e+00 0.0000e+00 0.0000e+00 [bar]
-1.7588e+01  2.5170e+01  9.9690e+01 +/- 0.0000e+00 0.0000e+00 0.0000e+00 [bar]
Ideal-gas pressure:   5.033203e+02 +/ 0.000000e+00 [bar]
Excess pressure:     -4.221682e+02 +/ 0.000000e+00 [bar]
Pressure:             8.115207e+01 +/ 0.000000e+00 [bar]

Total potential energy/kʙ  -1.559284e+05 (-1.534849e+05 +/- 0.000000e+00) [K]
-------------------------------------------------------------------------------
ExternalField-molecule
    Van der Waals/kʙ        0.000000e+00 ( 0.000000e+00 +/- 0.000000e+00) [K]
Framework-molecule
    Van der Waals/kʙ        0.000000e+00 ( 0.000000e+00 +/- 0.000000e+00) [K]
    Van der Waals (Tail)/kʙ 0.000000e+00 ( 0.000000e+00 +/- 0.000000e+00) [K]
    Coulombic Real/kʙ       0.000000e+00 ( 0.000000e+00 +/- 0.000000e+00) [K]
    Coulombic Fourier/kʙ    0.000000e+00 ( 0.000000e+00 +/- 0.000000e+00) [K]
Molecule-molecule
    Van der Waals/kʙ       -1.097508e+05 (-1.093302e+05 +/- 0.000000e+00) [K]
    Van der Waals (Tail)/kʙ-4.710879e+03 (-4.680097e+03 +/- 0.000000e+00) [K]
    Coulombic Real/kʙ      -3.313300e+04 (-3.169538e+04 +/- 0.000000e+00) [K]
    Coulombic Fourier/kʙ   -8.333675e+03 (-7.779210e+03 +/- 0.000000e+00) [K]
    Molecule Intra/kʙ       0.000000e+00 ( 0.000000e+00 +/- 0.000000e+00) [K]

Current cycle: 2100 out of 5000
===============================================================================

Box:      19.08549   0.00000   0.00000  Average:  19.01041   0.00000   0.00000
           0.00000  19.08549   0.00000             0.00000  19.01041   0.00000
           0.00000   0.00000  19.08549             0.00000   0.00000  19.01041
Lengths:  19.08549  19.08549  19.08549  Average:  19.01041  19.01041  19.01041
Angles:   90.00000  90.00000  90.00000  Average:  90.00000  90.00000  90.00000
Rectangular boundary conditions

net charge:   0.00000000

component 0 (CO2) lambda:  0 occupancy:  1 (1.000000)
    net charge:   0.00000000 [e]

Amount of molecules per component :
-------------------------------------------------------------------------------
Component 0 (CO2)
    molecules:      1.000000e+02 molecules  (1.000000e+02 +/- 0.000000e+00)
    number density: 1.438435e-02 molec./A^3 (1.457193e-02 +/- 0.000000e+00)
    density:        1.050945e+03 kg/m^3     (1.064650e+03 +/- 0.000000e+00)

Average pressure tensor: 
-------------------------------------------------------------------------------
 8.5845e+01  6.6816e+01 -2.1819e+01 +/- 0.0000e+00 0.0000e+00 0.0000e+00 [bar]
 6.6816e+01  5.2177e+01  1.6835e+01 +/- 0.0000e+00 0.0000e+00 0.0000e+00 [bar]
-2.1819e+01  1.6835e+01  9.9906e+01 +/- 0.0000e+00 0.0000e+00 0.0000e+00 [bar]
Ideal-gas pressure:   5.029684e+02 +/ 0.000000e+00 [bar]
Excess pressure:     -4.236590e+02 +/ 0.000000e+00 [bar]
Pressure:             7.930942e+01 +/ 0.000000e+00 [bar]

Total potential energy/kʙ  -1.481698e+05 (-1.532799e+05 +/- 0.000000e+00) [K]
-------------------------------------------------------------------------------
ExternalField-molecule
    Van der Waals/kʙ        0.000000e+00 ( 0.000000e+00 +/- 0.000000e+00) [K]
Framework-molecule
    Van der Waals/kʙ        0.000000e+00 ( 0.000000e+00 +/- 0.000000e+00) [K]
    Van der Waals (Tail)/kʙ 0.000000e+00 ( 0.000000e+00 +/- 0.000000e+00) [K]
[...]
    Coulombic Fourier/kʙ    0.000000e+00 ( 0.000000e+00 +/- 0.000000e+00) [K]
Molecule-molecule
    Van der Waals/kʙ       -1.022573e+05 (-1.088891e+05 +/- 1.953208e+03) [K]
    Van der Waals (Tail)/kʙ-4.341062e+03 (-4.662771e+03 +/- 7.841401e+01) [K]
    Coulombic Real/kʙ      -2.991267e+04 (-3.154174e+04 +/- 9.116214e+02) [K]
    Coulombic Fourier/kʙ   -7.658559e+03 (-7.694729e+03 +/- 2.332792e+02) [K]
    Molecule Intra/kʙ       0.000000e+00 ( 0.000000e+00 +/- 0.000000e+00) [K]

Current cycle: 4700 out of 5000
===============================================================================

Box:      19.12588   0.00000   0.00000  Average:  19.03117   0.00000   0.00000
           0.00000  19.12588   0.00000             0.00000  19.03117   0.00000
           0.00000   0.00000  19.12588             0.00000   0.00000  19.03117
Lengths:  19.12588  19.12588  19.12588  Average:  19.03117  19.03117  19.03117
Angles:   90.00000  90.00000  90.00000  Average:  90.00000  90.00000  90.00000
Rectangular boundary conditions

net charge:   0.00000000

component 0 (CO2) lambda:  0 occupancy:  1 (1.000000)
    net charge:   0.00000000 [e]

Amount of molecules per component :
-------------------------------------------------------------------------------
Component 0 (CO2)
    molecules:      1.000000e+02 molecules  (1.000000e+02 +/- 0.000000e+00)
    number density: 1.429340e-02 molec./A^3 (1.452047e-02 +/- 2.600999e-04)
    density:        1.044300e+03 kg/m^3     (1.060890e+03 +/- 1.900334e+01)

Average pressure tensor: 
-------------------------------------------------------------------------------
 6.6551e+01  3.9800e+01 -4.8113e+01 +/- 3.2239e+01 6.7484e+01 4.3772e+01 [bar]
 3.9800e+01  9.1746e+01  2.9417e+01 +/- 6.7484e+01 1.3068e+02 2.0981e+01 [bar]
-4.8113e+01  2.9417e+01  6.1191e+01 +/- 4.3772e+01 2.0981e+01 8.5502e+01 [bar]
Ideal-gas pressure:   5.011922e+02 +/ 8.977675e+00 [bar]
Excess pressure:     -4.280297e+02 +/ 5.928429e+01 [bar]
Pressure:             7.316256e+01 +/ 6.446041e+01 [bar]

Total potential energy/kʙ  -1.544409e+05 (-1.527748e+05 +/- 2.989375e+03) [K]
-------------------------------------------------------------------------------
ExternalField-molecule
    Van der Waals/kʙ        0.000000e+00 ( 0.000000e+00 +/- 0.000000e+00) [K]
Framework-molecule
    Van der Waals/kʙ        0.000000e+00 ( 0.000000e+00 +/- 0.000000e+00) [K]
    Van der Waals (Tail)/kʙ 0.000000e+00 ( 0.000000e+00 +/- 0.000000e+00) [K]
    Coulombic Real/kʙ       0.000000e+00 ( 0.000000e+00 +/- 0.000000e+00) [K]
    Coulombic Fourier/kʙ    0.000000e+00 ( 0.000000e+00 +/- 0.000000e+00) [K]
Molecule-molecule
    Van der Waals/kʙ       -1.058429e+05 (-1.088082e+05 +/- 2.045885e+03) [K]
    Van der Waals (Tail)/kʙ-4.586108e+03 (-4.659183e+03 +/- 8.298704e+01) [K]
    Coulombic Real/kʙ      -3.624871e+04 (-3.160713e+04 +/- 7.904027e+02) [K]
    Coulombic Fourier/kʙ   -7.763173e+03 (-7.700343e+03 +/- 2.150486e+02) [K]
    Molecule Intra/kʙ       0.000000e+00 ( 0.000000e+00 +/- 0.000000e+00) [K]

Current cycle: 4800 out of 5000
===============================================================================

Box:      19.28103   0.00000   0.00000  Average:  19.03441   0.00000   0.00000
           0.00000  19.28103   0.00000             0.00000  19.03441   0.00000
           0.00000   0.00000  19.28103             0.00000   0.00000  19.03441
Lengths:  19.28103  19.28103  19.28103  Average:  19.03441  19.03441  19.03441
Angles:   90.00000  90.00000  90.00000  Average:  90.00000  90.00000  90.00000
Rectangular boundary conditions

net charge:   0.00000000

component 0 (CO2) lambda:  0 occupancy:  1 (1.000000)
    net charge:   0.00000000 [e]

Amount of molecules per component :
-------------------------------------------------------------------------------
Component 0 (CO2)
    molecules:      1.000000e+02 molecules  (1.000000e+02 +/- 0.000000e+00)
    number density: 1.395112e-02 molec./A^3 (1.451298e-02 +/- 2.636202e-04)
    density:        1.019293e+03 kg/m^3     (1.060343e+03 +/- 1.926054e+01)

Average pressure tensor: 
-------------------------------------------------------------------------------
 6.2340e+01  3.9662e+01 -4.4578e+01 +/- 3.9218e+01 6.6417e+01 4.3900e+01 [bar]
 3.9662e+01  9.1939e+01  3.2691e+01 +/- 6.6417e+01 1.2314e+02 2.7691e+01 [bar]
-4.4578e+01  3.2691e+01  5.9617e+01 +/- 4.3900e+01 2.7691e+01 8.5593e+01 [bar]
Ideal-gas pressure:   5.009338e+02 +/ 9.099182e+00 [bar]
Excess pressure:     -4.296353e+02 +/ 5.961146e+01 [bar]
Pressure:             7.129850e+01 +/ 6.494068e+01 [bar]

Total potential energy/kʙ  -1.474307e+05 (-1.527744e+05 +/- 2.917190e+03) [K]
-------------------------------------------------------------------------------
ExternalField-molecule
    Van der Waals/kʙ        0.000000e+00 ( 0.000000e+00 +/- 0.000000e+00) [K]
Framework-molecule
    Van der Waals/kʙ        0.000000e+00 ( 0.000000e+00 +/- 0.000000e+00) [K]
    Van der Waals (Tail)/kʙ 0.000000e+00 ( 0.000000e+00 +/- 0.000000e+00) [K]
    Coulombic Real/kʙ       0.000000e+00 ( 0.000000e+00 +/- 0.000000e+00) [K]
    Coulombic Fourier/kʙ    0.000000e+00 ( 0.000000e+00 +/- 0.000000e+00) [K]
Molecule-molecule
    Van der Waals/kʙ       -1.059881e+05 (-1.087631e+05 +/- 2.061300e+03) [K]
    Van der Waals (Tail)/kʙ-4.476286e+03 (-4.657264e+03 +/- 8.302044e+01) [K]
    Coulombic Real/kʙ      -2.964712e+04 (-3.164948e+04 +/- 7.688330e+02) [K]
    Coulombic Fourier/kʙ   -7.319160e+03 (-7.704581e+03 +/- 2.060599e+02) [K]
    Molecule Intra/kʙ       0.000000e+00 ( 0.000000e+00 +/- 0.000000e+00) [K]

Current cycle: 4900 out of 5000
===============================================================================

Box:      19.14367   0.00000   0.00000  Average:  19.03604   0.00000   0.00000
           0.00000  19.14367   0.00000             0.00000  19.03604   0.00000
           0.00000   0.00000  19.14367             0.00000   0.00000  19.03604
Lengths:  19.14367  19.14367  19.14367  Average:  19.03604  19.03604  19.03604
Angles:   90.00000  90.00000  90.00000  Average:  90.00000  90.00000  90.00000
Rectangular boundary conditions

net charge:   0.00000000

component 0 (CO2) lambda:  0 occupancy:  1 (1.000000)
    net charge:   0.00000000 [e]

Amount of molecules per component :
-------------------------------------------------------------------------------
Component 0 (CO2)
    molecules:      1.000000e+02 molecules  (1.000000e+02 +/- 0.000000e+00)
    number density: 1.425358e-02 molec./A^3 (1.450906e-02 +/- 2.595676e-04)
    density:        1.041391e+03 kg/m^3     (1.060057e+03 +/- 1.896445e+01)

Average pressure tensor: 
-------------------------------------------------------------------------------
 5.5972e+01  3.4853e+01 -4.3184e+01 +/- 5.1919e+01 7.1954e+01 4.4585e+01 [bar]
 3.4853e+01  9.3494e+01  3.8714e+01 +/- 7.1954e+01 1.1518e+02 4.1615e+01 [bar]
-4.3184e+01  3.8714e+01  5.5371e+01 +/- 4.4585e+01 4.1615e+01 9.0438e+01 [bar]
Ideal-gas pressure:   5.007985e+02 +/ 8.959303e+00 [bar]
Excess pressure:     -4.325193e+02 +/ 6.303727e+01 [bar]
Pressure:             6.827913e+01 +/ 6.835321e+01 [bar]

Total potential energy/kʙ  -1.569581e+05 (-1.528039e+05 +/- 2.831012e+03) [K]
-------------------------------------------------------------------------------
ExternalField-molecule
    Van der Waals/kʙ        0.000000e+00 ( 0.000000e+00 +/- 0.000000e+00) [K]
Framework-molecule
    Van der Waals/kʙ        0.000000e+00 ( 0.000000e+00 +/- 0.000000e+00) [K]
    Van der Waals (Tail)/kʙ 0.000000e+00 ( 0.000000e+00 +/- 0.000000e+00) [K]
    Coulombic Real/kʙ       0.000000e+00 ( 0.000000e+00 +/- 0.000000e+00) [K]
    Coulombic Fourier/kʙ    0.000000e+00 ( 0.000000e+00 +/- 0.000000e+00) [K]
Molecule-molecule
    Van der Waals/kʙ       -1.112939e+05 (-1.087722e+05 +/- 1.990435e+03) [K]
    Van der Waals (Tail)/kʙ-4.573332e+03 (-4.655690e+03 +/- 8.252769e+01) [K]
    Coulombic Real/kʙ      -3.320220e+04 (-3.166789e+04 +/- 7.691229e+02) [K]
    Coulombic Fourier/kʙ   -7.888701e+03 (-7.708146e+03 +/- 2.011712e+02) [K]
    Molecule Intra/kʙ       0.000000e+00 ( 0.000000e+00 +/- 0.000000e+00) [K]


Energy statistics             |  Energy [K]   | Recomputed [K]|  Drift [K]    |
===============================================================================
Total potential energy/kʙ     | -1.464060e+05 | -1.464060e+05 | -1.058867e-09 |
    external field VDW/kʙ     |  0.000000e+00 |  0.000000e+00 |  0.000000e+00 |
    external field Real/kʙ    |  0.000000e+00 |  0.000000e+00 |  0.000000e+00 |
    framework-molecule VDW/kʙ |  0.000000e+00 |  0.000000e+00 |  0.000000e+00 |
    framework-molecule Real/kʙ|  0.000000e+00 |  0.000000e+00 |  0.000000e+00 |
    molecule-molecule VDW/kʙ  | -1.055344e+05 | -1.055344e+05 | -7.000777e-10 |
    molecule-molecule Real/kʙ | -2.912040e+04 | -2.912040e+04 | -8.750971e-11 |
    Van der Waals (Tail)/kʙ   | -4.476000e+03 | -4.476000e+03 |  0.000000e+00 |
    Ewald Fourier/kʙ          |  7.255688e+03 |  7.255688e+03 |  8.750971e-12 |
    Ewald self/kʙ             | -2.222923e+06 | -2.222923e+06 |  0.000000e+00 |
    Ewald exclusion/kʙ        |  2.208392e+06 |  2.208392e+06 | -2.800311e-10 |
    intra VDW/kʙ              |  0.000000e+00 |  0.000000e+00 |  0.000000e+00 |
    intra Coulombic/kʙ        |  0.000000e+00 |  0.000000e+00 |  0.000000e+00 |
    polarization/kʙ           |  0.000000e+00 |  0.000000e+00 |  0.000000e+00 |
    dU/dlambda VDW/kʙ         |  0.000000e+00 |  0.000000e+00 |  0.000000e+00 |
    dU/dlambda Real/kʙ        |  0.000000e+00 |  0.000000e+00 |  0.000000e+00 |
    dU/dlambda Ewald/kʙ       |  0.000000e+00 |  0.000000e+00 |  0.000000e+00 |
-------------------------------------------------------------------------------


Monte-Carlo moves statistics
===============================================================================

    Volume change        all:                3188
    Volume change        total:              3188
    Volume change        constructed:        3188
    Volume change        accepted:           2087
    Volume change        fraction:       0.654642
    Volume change        max-change:     0.025000

Component 0 [CO2]
    Reinsertion (CBMC)   all:              165265
    Reinsertion (CBMC)   total:            165265
    Reinsertion (CBMC)   constructed:      148158
    Reinsertion (CBMC)   accepted:           2745
    Reinsertion (CBMC)   fraction:       0.016610
    Reinsertion (CBMC)   max-change:     0.000000

    Translation          all:              165984
    Translation          total:             55541      55354      55089
    Translation          constructed:       55539      55352      55088
    Translation          accepted:          21680      26693      25427
    Translation          fraction:       0.390342   0.482224   0.461562
    Translation          max-change:     0.933333   0.700000   0.750000

    Rotation             all:              165563
    Rotation             total:             55370      55236      54957
    Rotation             constructed:       55370      55230      54553
    Rotation             accepted:          30212      22148      15651
    Rotation             fraction:       0.545638   0.400970   0.284786
    Rotation             max-change:     0.581818   0.979592   1.500000



Production run counting of the MC moves summed over systems and components
===============================================================================

Volume change                          3188 (0.6376 [%])
Reinsertion (CBMC)                   165265 (33.0530 [%])
Translation                          165984 (33.1968 [%])
Rotation                             165563 (33.1126 [%])

Production count MC-steps:           500000 [-]
               All summed:           500000 [-]
               difference:                0 [-]


Production run CPU timings of the MC moves
===============================================================================

Component 0 CO2

Rotation                             22.353906 [s]
    Ewald                            12.467478 [s]
    ExternalField-Molecule            0.006034 [s]
    Framework-Molecule                0.006333 [s]
    Molecule-Molecule                 8.972163 [s]
    Overhead                          0.901898 [s]

Reinsertion (CBMC)                   70.639105 [s]
    Ewald                            11.170681 [s]
    NonEwald                         59.303434 [s]
    Overhead                          0.164990 [s]

Translation                          22.506578 [s]
    Ewald                            12.521471 [s]
    ExternalField-Molecule            0.005691 [s]
    Framework-Molecule                0.010940 [s]
    Molecule-Molecule                 9.025364 [s]
    Overhead                          0.943112 [s]



Volume change                          9.088539 [s]
    Ewald                              4.558303 [s]
    NonEwald                           4.307164 [s]
    Tail                               0.142595 [s]

Property sampling                     0.237537 [s]
Energy/pressure sampling:             3.411222 [s]


Production run CPU timings of the MC moves summed over systems and components
===============================================================================


Translation                          22.506578 [s]
    Ewald                            12.521471 [s]
    ExternalField-Molecule            0.005691 [s]
    Framework-Molecule                0.010940 [s]
    Molecule-Molecule                 9.025364 [s]
    Overhead                          0.943112 [s]

Rotation                             22.353906 [s]
    Ewald                            12.467478 [s]
    ExternalField-Molecule            0.006034 [s]
    Framework-Molecule                0.006333 [s]
    Molecule-Molecule                 8.972163 [s]
    Overhead                          0.901898 [s]

Volume change                         9.088539 [s]
    Ewald                             4.558303 [s]
    NonEwald                          4.307164 [s]
    Tail                              0.142595 [s]
    Overhead                          0.080477 [s]

Reinsertion (CBMC)                   70.639105 [s]
    Ewald                            11.170681 [s]
    NonEwald                         59.303434 [s]
    Overhead                          0.164990 [s]

Property sampling:                    0.237537 [s]
Energy/pressure sampling:             3.411222 [s]

Production simulation time:         128.610950 [s]
                All summed:         128.236887 [s]
                  Overhead:           0.374063 [s]


Initalization simulation time:       22.415364 [s]
Equilibration simulation time:        0.000000 [s]
Production simulation time:         128.610950 [s]
Total simulation time:              151.026314 [s]


Energy averages and statistics:
===============================================================================

Framework-molecule energy:
-------------------------------------------------------------------------------



Framework-molecule energy contributions per energy type:
-------------------------------------------------------------------------------



Inter-molecular energy:
-------------------------------------------------------------------------------

    Inter-molecular energy/kʙ 0-0 [CO2-CO2]:
    ---------------------------------------------------------------------------
        Block[  0] -1.505338e+05
        Block[  1] -1.564116e+05
        Block[  2] -1.526128e+05
        Block[  3] -1.530988e+05
        Block[  4] -1.510412e+05
        -----------------------------------------------------------------------
        Average  -1.527396e+05 +/-  2.870087e+03 [K]



Inter-molecular energy contributions per energy type:
-------------------------------------------------------------------------------

    Van der Waals energy/kʙ 0-0 [CO2-CO2]:
    ---------------------------------------------------------------------------
        Block[  0] -1.073978e+05
        Block[  1] -1.112584e+05
        Block[  2] -1.088076e+05
        Block[  3] -1.089664e+05
        Block[  4] -1.071742e+05
        -----------------------------------------------------------------------
        Average  -1.087209e+05 +/-  2.025676e+03 [K]

    VDW Tail-Correction energy/kʙ 0-0 [CO2-CO2]:
    ---------------------------------------------------------------------------
        Block[  0] -4.612645e+03
        Block[  1] -4.747241e+03
        Block[  2] -4.668239e+03
        Block[  3] -4.671037e+03
        Block[  4] -4.568999e+03
        -----------------------------------------------------------------------
        Average  -4.653632e+03 +/-  8.356092e+01 [K]

    Coulomb Real energy/kʙ 0-0 [CO2-CO2]:
    ---------------------------------------------------------------------------
        Block[  0] -3.087717e+04
        Block[  1] -3.249921e+04
        Block[  2] -3.129939e+04
        Block[  3] -3.195223e+04
        Block[  4] -3.165684e+04
        -----------------------------------------------------------------------
        Average  -3.165697e+04 +/-  7.684303e+02 [K]

    Coulomb Fourier energy/kʙ 0-0 [CO2-CO2]:
    ---------------------------------------------------------------------------
        Block[  0] -7.646169e+03
        Block[  1] -7.906706e+03
        Block[  2] -7.837536e+03
        Block[  3] -7.509123e+03
        Block[  4] -7.641112e+03
        -----------------------------------------------------------------------
        Average  -7.708129e+03 +/-  2.002885e+02 [K]


Total energy/kʙ
-------------------------------------------------------------------------------
    Block[  0] -1.505338e+05
    Block[  1] -1.564116e+05
    Block[  2] -1.526128e+05
    Block[  3] -1.530988e+05
    Block[  4] -1.510412e+05
    ---------------------------------------------------------------------------
    Average  -1.527396e+05 +/-  2.870087e+03 [K]

Pressure averages and statistics:
===============================================================================

Average pressure tensor: 
-------------------------------------------------------------------------------
 5.9296e+01  3.3963e+01 -3.7799e+01 +/- 4.2020e+01 7.1640e+01 4.9765e+01 [bar]
 3.3963e+01  8.6087e+01  3.6380e+01 +/- 7.1640e+01 1.2475e+02 3.3110e+01 [bar]
-3.7799e+01  3.6380e+01  5.8876e+01 +/- 4.9765e+01 3.3110e+01 8.2627e+01 [bar]

    Block[  0]  4.960055e+07
    Block[  1]  5.106316e+07
    Block[  2]  5.025404e+07
    Block[  3]  5.022504e+07
    Block[  4]  4.911640e+07
    ---------------------------------------------------------------------------
    Ideal gas pressure   5.005184e+07 +/-  5.509620e-02 [Pa]
                         5.005184e+02 +/-  9.148945e+00 [bar]


    Block[  0] -4.239993e+07
    Block[  1] -4.204323e+07
    Block[  2] -4.535646e+07
    Block[  3] -3.665173e+07
    Block[  4] -4.976468e+07
    ---------------------------------------------------------------------------
    Excess pressure  -4.324321e+07 +/-  5.973051e+06 [Pa]
                     -4.324321e+02 +/-  5.973051e+01 [bar]


    Block[  0]  7.200622e+06
    Block[  1]  9.019935e+06
    Block[  2]  4.897579e+06
    Block[  3]  1.357331e+07
    Block[  4] -6.482883e+05
    ---------------------------------------------------------------------------
    Pressure average   6.808632e+06 +/-  6.512137e+06 [Pa]
                       6.808632e+01 +/-  6.512137e+01 [bar]


Enthalpy of adsorption
===============================================================================

No fluctuating components present.


Densities
===============================================================================

Component 0 (CO2)
    Block[  0] 100
    Block[  1] 100
    Block[  2] 100
    Block[  3] 100
    Block[  4] 100
    -----------------------------------------------------------------------
    Density average   1.000000e+02 +/-  0.000000e+00 [molecules]
    Density average   1.450095e-02 +/-  2.650619e-04 [molec/A^3]
    Density average   1.059464e+03 +/-  1.936588e+01 [kg.m⁻³]

