Compiler and run-time data
===============================================================================
RASPA 3.0.4

Random seed: 3848428967

Compiled as a 64-bits application
Compiler: gcc Ubuntu Clang 18.1.3 (1ubuntu1)
Compile Date = Mar 15 2025, Compile Time = 19:39:45

2025-06-03 11:00:44.429069
Simulation started on Tue, Jun 03
The start time was 11:00:00

Hostname:    c109
OS type:     Linux on x86_64
OS release:  6.8.0-58-generic
OS version:  #60-Ubuntu SMP PREEMPT_DYNAMIC Fri Mar 14 18:29:48 UTC 2025


Mutual consistent basic set of units:
===============================================================================

Unit of temperature: 1 [K]
Unit of length:      1e-10 [m]
Unit of time:        1e-12 [s]
Unit of mass:        1.6605402e-27 [kg]
Unit of charge:      1.60217733e-19 [C/particle]


Boltzmann constant (internal units):          0.8314464919307584 [-]
represents conversion from energy (internal units) to temperature (in Kelvin)

Derived units and their conversion factors:
===============================================================================

Unit of energy:                           1.6605402000000002e-23 [J]
Unit of energy:                           10.000008872307538 [J.mol⁻¹]
Unit of velocity:                         100 [m.s⁻¹]
Unit of force:                            1.6605402000000002e-13 [N]
Unit of diffusion:                        1.0000000000000002e-08 [m².s⁻¹]
Unit of acceleration:                     1.0000000000000002e-08 [m².s⁻¹]
Unit of torque:                           1.6605402000000002e-23 [N.m]
Unit of pressure:                         16605402 [Pa]
Unit of volume:                           1e-30 [m³]
Unit of density:                          1660.5402 [kg.m⁻³]
Unit of dynamic viscosity:                1.6605401999999997e-05 [N.s.m⁻²]
Unit of enthalpy:                         1.6605402000000002e-23 [J]
Unit of polarizability:                   1.5458657349975198e-35 [-]
Unit of Coulomb potential:                167101.08000665612 [K]
Unit of dielectric constant:              1.5458657349975193e-05 [s².C².kg⁻¹.m⁻³]
Unit of dipole moment:                    1.60217733e-29 [C.m]
Unit of Debye:                            4.803206799099162 [C.m]
Unit of electric potential:               0.00010364272224473431 [V]
Unit of electric field:                   1036427.222447343 [V.m⁻¹]
Unit of isothermal compressibility:       6.02213665167516e-08 [Pa⁻¹]
Unit of heat capacity:                    10.000008872307538 [J.mol⁻¹.K⁻¹]
Unit of volumetric expansion coefficient: 1 [K⁻¹]


Internal conversion factors:
===============================================================================

Energy (internal units) to Kelvin:      1.202724284692786 [-]
Kelvin to energy (internal units):      0.8314457542157567 [-]


System definitions
===============================================================================

Temperature:          220 [K]
Beta:                 0.005466923716160299 [-]
Pressure:             0 [Pa]
Helium void fraction: 1 [-]

Box:      30.00000   0.00000   0.00000
           0.00000  30.00000   0.00000
           0.00000   0.00000  30.00000
Lengths:  30.00000  30.00000  30.00000
Angles:   90.00000  90.00000  90.00000
Rectangular boundary conditions



Property measurement settings
===============================================================================




Pseudo-atoms
===============================================================================

  0 - C_co2    framework-atom: false
  1 - O_co2    framework-atom: false

  0 - C_co2    mass: 12.00000, charge:  0.70000
  1 - O_co2    mass: 15.99940, charge: -0.35000

  0 - C_co2    polarizability:  0.00000
  1 - O_co2    polarizability:  0.00000

  0 - J. J. Potoff et al., AIChE J. 2001, 47, 1676–1682.
  1 - J. J. Potoff et al., AIChE J. 2001, 47, 1676–1682.

Force field status
===============================================================================

Cutoff Framework-Molecule VDW:  12.00000 [Å]
Cutoff Molecule-Molecule VDW:   12.00000 [Å]
Cutoff Coulomb:                 12.00000 [Å]

Overlap-criteria VDW:           1.000000e+05 [K]

C_co2    - C_co2    Lennard-Jones p₀/kʙ:  27.00000 [K], p₁:  2.80000 [Å]
                                  shift:   0.00000 [K], tailcorrections: true
C_co2    - O_co2    Lennard-Jones p₀/kʙ:  46.18441 [K], p₁:  2.92500 [Å]
                                  shift:   0.00000 [K], tailcorrections: true
O_co2    - O_co2    Lennard-Jones p₀/kʙ:  79.00000 [K], p₁:  3.05000 [Å]
                                  shift:   0.00000 [K], tailcorrections: true

Ewald precision: 1e-06
Ewald alpha: 0.26505830360350674
Ewald k-vectors: 8 8 8


Component definitions
===============================================================================

Component 0 [CO2]

    Type: Adsorbate

    Critical temperature:  304.1282 [K]
    Critical pressure:     7377300 [Pa]
    Acentric factor:       0.22394 [-]

    Mol-fraction:                 1 [-]
    Swappable:                   true

    Mass:                         43.9988 [-]
    Fugacity coefficient:         -nan [-]
    Bulk fluid density:           0 [-]
    Compressibility:              1 [-]
    Excess molecules:             0 [-]

    Number Of Atoms:    3
    CBMC starting bead: 0
      0: O_co2  position  0.00000 -0.00000  1.16000, charge -0.35000
      1: C_co2  position  0.00000 -0.00000  0.00000, charge  0.70000
      2: O_co2  position  0.00000 -0.00000 -1.16000, charge -0.35000
    Diagonalized inertia-vector:      43.05758528 43.05758528 0.00000000
    Translational degrees of freedom: 3
    Rotational degrees of freedom:    2
    Shape of the molecule is: 'Linear'
    Net-charge:        0.00000000 [e]

    Move probabilities:
    Translation:                   0.199203 [-]
    Random translation:            0.000000 [-]
    Rotation:                      0.199203 [-]
    Random rotation:               0.000000 [-]
    Volume change:                 0.000000 [-]
    Reinsertion (CBMC):            0.199203 [-]
    Identity change (CBMC):        0.000000 [-]
    Swap:                          0.000000 [-]
    Swap (CBMC):                   0.000000 [-]
    Swap (CFCMC):                  0.000000 [-]
    Swap (CB/CFCMC):               0.000000 [-]
    Gibbs volume:                  0.003984 [-]
    Gibbs swap (CBMC):             0.398406 [-]
    Gibbs swap (CFCMC):            0.000000 [-]
    Widom:                         0.000000 [-]
    Widom (CFCMC):                 0.000000 [-]
    Widom (CB/CFCMC):              0.000000 [-]
    Parallel tempering:            0.000000 [-]
    Hybrid MC:                     0.000000 [-]

    number of blocking-pockets: 0

    number of bonds: 0





Number of pseudo-atoms
===============================================================================

Component   0 (CO2)
-------------------------------------------------------------------------------
    index   0 (C_co2): 40 atoms
    index   1 (O_co2): 80 atoms

Total number of pseudo-atoms:
-------------------------------------------------------------------------------
    index   0 (C_co2): 40 atoms
    index   1 (O_co2): 80 atoms




Energy status Recomputed from scratch
===============================================================================

Total potential energy/kʙ       -5.881918e+03 [K]
    external field VDW/kʙ        0.000000e+00 [K]
    external field Real/kʙ       0.000000e+00 [K]
    framework-molecule VDW/kʙ    0.000000e+00 [K]
    framework-molecule Real/kʙ   0.000000e+00 [K]
    molecule-molecule VDW/kʙ    -4.635624e+03 [K]
    molecule-molecule Real/kʙ   -1.123125e+03 [K]
    Van der Waals (Tail)/kʙ     -1.100506e+02 [K]
    Ewald Fourier/kʙ             2.339107e+03 [K]
    Ewald self/kʙ               -7.346713e+05 [K]
    Ewald exclusion/kʙ           7.323191e+05 [K]
    intra VDW/kʙ                 0.000000e+00 [K]
    intra Coulombic/kʙ           0.000000e+00 [K]
    polarization/kʙ              0.000000e+00 [K]
    dU/dlambda VDW/kʙ            0.000000e+00 [K]
    dU/dlambda Real/kʙ           0.000000e+00 [K]
    dU/dlambda Ewald/kʙ          0.000000e+00 [K]





Initialization: Current cycle: 0 out of 2000
===============================================================================

Box:      30.00000   0.00000   0.00000
           0.00000  30.00000   0.00000
           0.00000   0.00000  30.00000
Lengths:  30.00000  30.00000  30.00000
Angles:   90.00000  90.00000  90.00000
Rectangular boundary conditions

net charge:   0.00000000

component   0 (CO2) lambda:  0 occupancy:  1 (1.000000)
    net charge:   0.00000000 [e]

Amount of molecules per component :
-------------------------------------------------------------------------------
Component 0 (CO2)
    molecules:         3.700000e+01 molecules
    number density:    1.370370e-03 molec/A^3
    density:           1.001216e+02 kg/m^3

Total potential energy/kʙ       -7.146843e+03 [K]
-------------------------------------------------------------------------------
    external field VDW/kʙ        0.000000e+00 [K]
    external field Real/kʙ       0.000000e+00 [K]
    framework-molecule VDW/kʙ    0.000000e+00 [K]
    framework-molecule Real/kʙ   0.000000e+00 [K]
    molecule-molecule VDW/kʙ    -5.328440e+03 [K]
    molecule-molecule Real/kʙ   -1.616306e+03 [K]
    Van der Waals (Tail)/kʙ     -9.416205e+01 [K]
    Ewald Fourier/kʙ             2.067873e+03 [K]
    Ewald self/kʙ               -6.795709e+05 [K]
    Ewald exclusion/kʙ           6.773951e+05 [K]
    intra VDW/kʙ                 0.000000e+00 [K]
    intra Coulombic/kʙ           0.000000e+00 [K]
    polarization/kʙ              0.000000e+00 [K]
    dU/dlambda VDW/kʙ            0.000000e+00 [K]
    dU/dlambda Real/kʙ           0.000000e+00 [K]
    dU/dlambda Ewald/kʙ          0.000000e+00 [K]


Initialization: Current cycle: 100 out of 2000
===============================================================================

Box:      30.27548   0.00000   0.00000
           0.00000  30.27548   0.00000
           0.00000   0.00000  30.27548
Lengths:  30.27548  30.27548  30.27548
Angles:   90.00000  90.00000  90.00000
Rectangular boundary conditions

net charge:   0.00000000

component   0 (CO2) lambda:  0 occupancy:  1 (1.000000)
    net charge:   0.00000000 [e]

Amount of molecules per component :
-------------------------------------------------------------------------------
Component 0 (CO2)
    molecules:         8.000000e+00 molecules
    number density:    2.882816e-04 molec/A^3
    density:           2.106235e+01 kg/m^3

Total potential energy/kʙ       -6.353626e+02 [K]
-------------------------------------------------------------------------------
    external field VDW/kʙ        0.000000e+00 [K]
    external field Real/kʙ       0.000000e+00 [K]
    framework-molecule VDW/kʙ    0.000000e+00 [K]
    framework-molecule Real/kʙ   0.000000e+00 [K]
    molecule-molecule VDW/kʙ    -4.027203e+02 [K]
    molecule-molecule Real/kʙ   -2.433457e+02 [K]
    Van der Waals (Tail)/kʙ     -4.282951e+00 [K]
    Ewald Fourier/kʙ             4.854316e+02 [K]
    Ewald self/kʙ               -1.469343e+05 [K]
    Ewald exclusion/kʙ           1.464638e+05 [K]
    intra VDW/kʙ                 0.000000e+00 [K]
    intra Coulombic/kʙ           0.000000e+00 [K]
    polarization/kʙ              0.000000e+00 [K]
    dU/dlambda VDW/kʙ            0.000000e+00 [K]
    dU/dlambda Real/kʙ           0.000000e+00 [K]
    dU/dlambda Ewald/kʙ          0.000000e+00 [K]


Initialization: Current cycle: 200 out of 2000
===============================================================================

Box:      30.62066   0.00000   0.00000
           0.00000  30.62066   0.00000
           0.00000   0.00000  30.62066
Lengths:  30.62066  30.62066  30.62066
Angles:   90.00000  90.00000  90.00000
Rectangular boundary conditions

net charge:   0.00000000

component   0 (CO2) lambda:  0 occupancy:  1 (1.000000)
    net charge:   0.00000000 [e]

Amount of molecules per component :
-------------------------------------------------------------------------------
Component 0 (CO2)
    molecules:         3.000000e+00 molecules
    number density:    1.044906e-04 molec/A^3
    density:           7.634266e+00 kg/m^3

Total potential energy/kʙ       -2.321876e+00 [K]
-------------------------------------------------------------------------------
    external field VDW/kʙ        0.000000e+00 [K]
    external field Real/kʙ       0.000000e+00 [K]
    framework-molecule VDW/kʙ    0.000000e+00 [K]
    framework-molecule Real/kʙ   0.000000e+00 [K]
    molecule-molecule VDW/kʙ    -1.829551e+00 [K]
    molecule-molecule Real/kʙ    7.153190e-02 [K]
    Van der Waals (Tail)/kʙ     -5.821500e-01 [K]
    Ewald Fourier/kʙ             1.764352e+02 [K]
    Ewald self/kʙ               -5.510035e+04 [K]
    Ewald exclusion/kʙ           5.492393e+04 [K]
    intra VDW/kʙ                 0.000000e+00 [K]
    intra Coulombic/kʙ           0.000000e+00 [K]
    polarization/kʙ              0.000000e+00 [K]
    dU/dlambda VDW/kʙ            0.000000e+00 [K]
    dU/dlambda Real/kʙ           0.000000e+00 [K]
    dU/dlambda Ewald/kʙ          0.000000e+00 [K]


Initialization: Current cycle: 300 out of 2000
===============================================================================

Box:      30.69885   0.00000   0.00000
           0.00000  30.69885   0.00000
           0.00000   0.00000  30.69885
Lengths:  30.69885  30.69885  30.69885
Angles:   90.00000  90.00000  90.00000
Rectangular boundary conditions

net charge:   0.00000000

component   0 (CO2) lambda:  0 occupancy:  1 (1.000000)
    net charge:   0.00000000 [e]

Amount of molecules per component :
-------------------------------------------------------------------------------
Component 0 (CO2)
    molecules:         6.000000e+00 molecules
    number density:    2.073885e-04 molec/A^3
    density:           1.515216e+01 kg/m^3

Total potential energy/kʙ       -5.270035e+02 [K]
-------------------------------------------------------------------------------
    external field VDW/kʙ        0.000000e+00 [K]
    external field Real/kʙ       0.000000e+00 [K]
    framework-molecule VDW/kʙ    0.000000e+00 [K]
    framework-molecule Real/kʙ   0.000000e+00 [K]
    molecule-molecule VDW/kʙ    -2.918478e+02 [K]
    molecule-molecule Real/kʙ   -2.465842e+02 [K]
    Van der Waals (Tail)/kʙ     -2.246662e+00 [K]
    Ewald Fourier/kʙ             3.665090e+02 [K]
    Ewald self/kʙ               -1.102007e+05 [K]
    Ewald exclusion/kʙ           1.098479e+05 [K]
    intra VDW/kʙ                 0.000000e+00 [K]
    intra Coulombic/kʙ           0.000000e+00 [K]
    polarization/kʙ              0.000000e+00 [K]
    dU/dlambda VDW/kʙ            0.000000e+00 [K]
    dU/dlambda Real/kʙ           0.000000e+00 [K]
    dU/dlambda Ewald/kʙ          0.000000e+00 [K]


Initialization: Current cycle: 400 out of 2000
===============================================================================

Box:      30.87129   0.00000   0.00000
           0.00000  30.87129   0.00000
           0.00000   0.00000  30.87129
Lengths:  30.87129  30.87129  30.87129
Angles:   90.00000  90.00000  90.00000
Rectangular boundary conditions

net charge:   0.00000000

component   0 (CO2) lambda:  0 occupancy:  1 (1.000000)
    net charge:   0.00000000 [e]

Amount of molecules per component :
-------------------------------------------------------------------------------
Component 0 (CO2)
    molecules:         6.000000e+00 molecules
    number density:    2.039327e-04 molec/A^3
    density:           1.489967e+01 kg/m^3

Total potential energy/kʙ       -2.869158e+02 [K]
-------------------------------------------------------------------------------
    external field VDW/kʙ        0.000000e+00 [K]
    external field Real/kʙ       0.000000e+00 [K]
    framework-molecule VDW/kʙ    0.000000e+00 [K]
    framework-molecule Real/kʙ   0.000000e+00 [K]
    molecule-molecule VDW/kʙ    -1.833083e+02 [K]
    molecule-molecule Real/kʙ   -1.049922e+02 [K]
    Van der Waals (Tail)/kʙ     -2.272346e+00 [K]
    Ewald Fourier/kʙ             3.564909e+02 [K]
    Ewald self/kʙ               -1.102007e+05 [K]
    Ewald exclusion/kʙ           1.098479e+05 [K]
    intra VDW/kʙ                 0.000000e+00 [K]
    intra Coulombic/kʙ           0.000000e+00 [K]
    polarization/kʙ              0.000000e+00 [K]
    dU/dlambda VDW/kʙ            0.000000e+00 [K]
    dU/dlambda Real/kʙ           0.000000e+00 [K]
    dU/dlambda Ewald/kʙ          0.000000e+00 [K]


Initialization: Current cycle: 500 out of 2000
===============================================================================

Box:      31.25969   0.00000   0.00000
           0.00000  31.25969   0.00000
           0.00000   0.00000  31.25969
Lengths:  31.25969  31.25969  31.25969
Angles:   90.00000  90.00000  90.00000
Rectangular boundary conditions

net charge:   0.00000000

component   0 (CO2) lambda:  0 occupancy:  1 (1.000000)
    net charge:   0.00000000 [e]

Amount of molecules per component :
-------------------------------------------------------------------------------
Component 0 (CO2)
    molecules:         5.000000e+00 molecules
    number density:    1.636876e-04 molec/A^3
    density:           1.195930e+01 kg/m^3

Total potential energy/kʙ       -1.313683e+02 [K]
-------------------------------------------------------------------------------
    external field VDW/kʙ        0.000000e+00 [K]
    external field Real/kʙ       0.000000e+00 [K]
    framework-molecule VDW/kʙ    0.000000e+00 [K]
    framework-molecule Real/kʙ   0.000000e+00 [K]
    molecule-molecule VDW/kʙ    -9.969278e+01 [K]
    molecule-molecule Real/kʙ   -5.825498e-01 [K]
    Van der Waals (Tail)/kʙ     -1.519925e+00 [K]
    Ewald Fourier/kʙ             2.644551e+02 [K]
    Ewald self/kʙ               -9.183391e+04 [K]
    Ewald exclusion/kʙ           9.153988e+04 [K]
    intra VDW/kʙ                 0.000000e+00 [K]
    intra Coulombic/kʙ           0.000000e+00 [K]
    polarization/kʙ              0.000000e+00 [K]
    dU/dlambda VDW/kʙ            0.000000e+00 [K]
    dU/dlambda Real/kʙ           0.000000e+00 [K]
    dU/dlambda Ewald/kʙ          0.000000e+00 [K]


Initialization: Current cycle: 600 out of 2000
===============================================================================

Box:      31.72578   0.00000   0.00000
           0.00000  31.72578   0.00000
           0.00000   0.00000  31.72578
Lengths:  31.72578  31.72578  31.72578
Angles:   90.00000  90.00000  90.00000
Rectangular boundary conditions

net charge:   0.00000000

component   0 (CO2) lambda:  0 occupancy:  1 (1.000000)
    net charge:   0.00000000 [e]

Amount of molecules per component :
-------------------------------------------------------------------------------
Component 0 (CO2)
    molecules:         6.000000e+00 molecules
    number density:    1.878946e-04 molec/A^3
    density:           1.372790e+01 kg/m^3

Total potential energy/kʙ        2.835332e+01 [K]
-------------------------------------------------------------------------------
    external field VDW/kʙ        0.000000e+00 [K]
    external field Real/kʙ       0.000000e+00 [K]
    framework-molecule VDW/kʙ    0.000000e+00 [K]
    framework-molecule Real/kʙ   0.000000e+00 [K]
    molecule-molecule VDW/kʙ     3.426024e+01 [K]
    molecule-molecule Real/kʙ   -4.825598e+01 [K]
    Van der Waals (Tail)/kʙ     -2.093639e+00 [K]
    Ewald Fourier/kʙ             3.972765e+02 [K]
    Ewald self/kʙ               -1.102007e+05 [K]
    Ewald exclusion/kʙ           1.098479e+05 [K]
    intra VDW/kʙ                 0.000000e+00 [K]
    intra Coulombic/kʙ           0.000000e+00 [K]
    polarization/kʙ              0.000000e+00 [K]
    dU/dlambda VDW/kʙ            0.000000e+00 [K]
    dU/dlambda Real/kʙ           0.000000e+00 [K]
    dU/dlambda Ewald/kʙ          0.000000e+00 [K]


Initialization: Current cycle: 700 out of 2000
===============================================================================

Box:      31.89522   0.00000   0.00000
           0.00000  31.89522   0.00000
           0.00000   0.00000  31.89522
Lengths:  31.89522  31.89522  31.89522
Angles:   90.00000  90.00000  90.00000
Rectangular boundary conditions

net charge:   0.00000000

component   0 (CO2) lambda:  0 occupancy:  1 (1.000000)
    net charge:   0.00000000 [e]

Amount of molecules per component :
-------------------------------------------------------------------------------
Component 0 (CO2)
    molecules:         1.000000e+00 molecules
    number density:    3.081932e-05 molec/A^3
    density:           2.251712e+00 kg/m^3

Total potential energy/kʙ       -8.196491e-01 [K]
-------------------------------------------------------------------------------
    external field VDW/kʙ        0.000000e+00 [K]
    external field Real/kʙ       0.000000e+00 [K]
    framework-molecule VDW/kʙ    0.000000e+00 [K]
    framework-molecule Real/kʙ   0.000000e+00 [K]
    molecule-molecule VDW/kʙ    -6.895276e-01 [K]
    molecule-molecule Real/kʙ    9.825081e-02 [K]
    Van der Waals (Tail)/kʙ     -5.723469e-02 [K]
    Ewald Fourier/kʙ             5.863450e+01 [K]
    Ewald self/kʙ               -1.836678e+04 [K]
    Ewald exclusion/kʙ           1.830798e+04 [K]
    intra VDW/kʙ                 0.000000e+00 [K]
    intra Coulombic/kʙ           0.000000e+00 [K]
    polarization/kʙ              0.000000e+00 [K]
    dU/dlambda VDW/kʙ            0.000000e+00 [K]
    dU/dlambda Real/kʙ           0.000000e+00 [K]
    dU/dlambda Ewald/kʙ          0.000000e+00 [K]


Initialization: Current cycle: 800 out of 2000
===============================================================================

Box:      32.22714   0.00000   0.00000
           0.00000  32.22714   0.00000
           0.00000   0.00000  32.22714
Lengths:  32.22714  32.22714  32.22714
Angles:   90.00000  90.00000  90.00000
Rectangular boundary conditions

net charge:   0.00000000

component   0 (CO2) lambda:  0 occupancy:  1 (1.000000)
    net charge:   0.00000000 [e]

Amount of molecules per component :
-------------------------------------------------------------------------------
Component 0 (CO2)
    molecules:         2.000000e+00 molecules
    number density:    5.975367e-05 molec/A^3
    density:           4.365706e+00 kg/m^3

Total potential energy/kʙ       -7.389613e-01 [K]
-------------------------------------------------------------------------------
    external field VDW/kʙ        0.000000e+00 [K]
    external field Real/kʙ       0.000000e+00 [K]
    framework-molecule VDW/kʙ    0.000000e+00 [K]
    framework-molecule Real/kʙ   0.000000e+00 [K]
    molecule-molecule VDW/kʙ     3.418348e-14 [K]
    molecule-molecule Real/kʙ    7.969024e-13 [K]
    Van der Waals (Tail)/kʙ     -1.664532e-01 [K]
    Ewald Fourier/kʙ             1.170388e+02 [K]
    Ewald self/kʙ               -3.673356e+04 [K]
    Ewald exclusion/kʙ           3.661595e+04 [K]
    intra VDW/kʙ                 0.000000e+00 [K]
    intra Coulombic/kʙ           0.000000e+00 [K]
    polarization/kʙ              0.000000e+00 [K]
    dU/dlambda VDW/kʙ            0.000000e+00 [K]
    dU/dlambda Real/kʙ           0.000000e+00 [K]
    dU/dlambda Ewald/kʙ          0.000000e+00 [K]


Initialization: Current cycle: 900 out of 2000
===============================================================================

Box:      32.64586   0.00000   0.00000
           0.00000  32.64586   0.00000
           0.00000   0.00000  32.64586
Lengths:  32.64586  32.64586  32.64586
Angles:   90.00000  90.00000  90.00000
Rectangular boundary conditions

net charge:   0.00000000

component   0 (CO2) lambda:  0 occupancy:  1 (1.000000)
    net charge:   0.00000000 [e]

Amount of molecules per component :
-------------------------------------------------------------------------------
Component 0 (CO2)
    molecules:         3.000000e+00 molecules
    number density:    8.622575e-05 molec/A^3
    density:           6.299801e+00 kg/m^3

Total potential energy/kʙ       -2.110968e+00 [K]
-------------------------------------------------------------------------------
    external field VDW/kʙ        0.000000e+00 [K]
    external field Real/kʙ       0.000000e+00 [K]
    framework-molecule VDW/kʙ    0.000000e+00 [K]
    framework-molecule Real/kʙ   0.000000e+00 [K]
    molecule-molecule VDW/kʙ    -1.276147e+00 [K]
    molecule-molecule Real/kʙ    1.014957e-02 [K]
    Van der Waals (Tail)/kʙ     -4.270138e-01 [K]
    Ewald Fourier/kʙ             1.759990e+02 [K]
    Ewald self/kʙ               -5.510035e+04 [K]
    Ewald exclusion/kʙ           5.492393e+04 [K]
    intra VDW/kʙ                 0.000000e+00 [K]
    intra Coulombic/kʙ           0.000000e+00 [K]
    polarization/kʙ              0.000000e+00 [K]
    dU/dlambda VDW/kʙ            0.000000e+00 [K]
    dU/dlambda Real/kʙ           0.000000e+00 [K]
    dU/dlambda Ewald/kʙ          0.000000e+00 [K]


Initialization: Current cycle: 1000 out of 2000
===============================================================================

Box:      32.98576   0.00000   0.00000
           0.00000  32.98576   0.00000
           0.00000   0.00000  32.98576
Lengths:  32.98576  32.98576  32.98576
Angles:   90.00000  90.00000  90.00000
Rectangular boundary conditions

net charge:   0.00000000

component   0 (CO2) lambda:  0 occupancy:  1 (1.000000)
    net charge:   0.00000000 [e]

Amount of molecules per component :
-------------------------------------------------------------------------------
Component 0 (CO2)
    molecules:         2.000000e+00 molecules
    number density:    5.572508e-05 molec/A^3
    density:           4.071370e+00 kg/m^3

Total potential energy/kʙ       -5.977458e-01 [K]
-------------------------------------------------------------------------------
    external field VDW/kʙ        0.000000e+00 [K]
    external field Real/kʙ       0.000000e+00 [K]
    framework-molecule VDW/kʙ    0.000000e+00 [K]
    framework-molecule Real/kʙ   0.000000e+00 [K]
    molecule-molecule VDW/kʙ     6.676461e-17 [K]
    molecule-molecule Real/kʙ   -4.172788e-18 [K]
    Van der Waals (Tail)/kʙ     -1.552309e-01 [K]
    Ewald Fourier/kʙ             1.171688e+02 [K]
    Ewald self/kʙ               -3.673356e+04 [K]
    Ewald exclusion/kʙ           3.661595e+04 [K]
    intra VDW/kʙ                 0.000000e+00 [K]
    intra Coulombic/kʙ           0.000000e+00 [K]
    polarization/kʙ              0.000000e+00 [K]
    dU/dlambda VDW/kʙ            0.000000e+00 [K]
    dU/dlambda Real/kʙ           0.000000e+00 [K]
    dU/dlambda Ewald/kʙ          0.000000e+00 [K]


Initialization: Current cycle: 1100 out of 2000
===============================================================================

Box:      32.88236   0.00000   0.00000
           0.00000  32.88236   0.00000
           0.00000   0.00000  32.88236
Lengths:  32.88236  32.88236  32.88236
Angles:   90.00000  90.00000  90.00000
Rectangular boundary conditions

net charge:   0.00000000

component   0 (CO2) lambda:  0 occupancy:  1 (1.000000)
    net charge:   0.00000000 [e]

Amount of molecules per component :
-------------------------------------------------------------------------------
Component 0 (CO2)
    molecules:         1.000000e+00 molecules
    number density:    2.812621e-05 molec/A^3
    density:           2.054949e+00 kg/m^3

Total potential energy/kʙ       -2.778545e-01 [K]
-------------------------------------------------------------------------------
    external field VDW/kʙ        0.000000e+00 [K]
    external field Real/kʙ       0.000000e+00 [K]
    framework-molecule VDW/kʙ    0.000000e+00 [K]
    framework-molecule Real/kʙ   0.000000e+00 [K]
    molecule-molecule VDW/kʙ    -6.836696e-14 [K]
    molecule-molecule Real/kʙ   -4.871146e-13 [K]
    Van der Waals (Tail)/kʙ     -5.223329e-02 [K]
    Ewald Fourier/kʙ             5.858002e+01 [K]
    Ewald self/kʙ               -1.836678e+04 [K]
    Ewald exclusion/kʙ           1.830798e+04 [K]
    intra VDW/kʙ                 0.000000e+00 [K]
    intra Coulombic/kʙ           0.000000e+00 [K]
    polarization/kʙ              0.000000e+00 [K]
    dU/dlambda VDW/kʙ            0.000000e+00 [K]
    dU/dlambda Real/kʙ           0.000000e+00 [K]
    dU/dlambda Ewald/kʙ          0.000000e+00 [K]


Initialization: Current cycle: 1200 out of 2000
===============================================================================

Box:      33.15467   0.00000   0.00000
           0.00000  33.15467   0.00000
           0.00000   0.00000  33.15467
Lengths:  33.15467  33.15467  33.15467
Angles:   90.00000  90.00000  90.00000
Rectangular boundary conditions

net charge:   0.00000000

component   0 (CO2) lambda:  0 occupancy:  1 (1.000000)
    net charge:   0.00000000 [e]

Amount of molecules per component :
-------------------------------------------------------------------------------
Component 0 (CO2)
    molecules:         1.000000e+00 molecules
    number density:    2.743884e-05 molec/A^3
    density:           2.004728e+00 kg/m^3

Total potential energy/kʙ       -3.405472e-01 [K]
-------------------------------------------------------------------------------
    external field VDW/kʙ        0.000000e+00 [K]
    external field Real/kʙ       0.000000e+00 [K]
    framework-molecule VDW/kʙ    0.000000e+00 [K]
    framework-molecule Real/kʙ   0.000000e+00 [K]
    molecule-molecule VDW/kʙ     0.000000e+00 [K]
    molecule-molecule Real/kʙ    0.000000e+00 [K]
    Van der Waals (Tail)/kʙ     -5.095677e-02 [K]
    Ewald Fourier/kʙ             5.851605e+01 [K]
    Ewald self/kʙ               -1.836678e+04 [K]
    Ewald exclusion/kʙ           1.830798e+04 [K]
    intra VDW/kʙ                 0.000000e+00 [K]
    intra Coulombic/kʙ           0.000000e+00 [K]
    polarization/kʙ              0.000000e+00 [K]
    dU/dlambda VDW/kʙ            0.000000e+00 [K]
    dU/dlambda Real/kʙ           0.000000e+00 [K]
    dU/dlambda Ewald/kʙ          0.000000e+00 [K]


Initialization: Current cycle: 1300 out of 2000
===============================================================================

Box:      33.42423   0.00000   0.00000
           0.00000  33.42423   0.00000
           0.00000   0.00000  33.42423
Lengths:  33.42423  33.42423  33.42423
Angles:   90.00000  90.00000  90.00000
Rectangular boundary conditions

net charge:   0.00000000

component   0 (CO2) lambda:  0 occupancy:  1 (1.000000)
    net charge:   0.00000000 [e]

Amount of molecules per component :
-------------------------------------------------------------------------------
Component 0 (CO2)
    molecules:         2.000000e+00 molecules
    number density:    5.356065e-05 molec/A^3
    density:           3.913233e+00 kg/m^3

Total potential energy/kʙ       -6.559885e-01 [K]
-------------------------------------------------------------------------------
    external field VDW/kʙ        0.000000e+00 [K]
    external field Real/kʙ       0.000000e+00 [K]
    framework-molecule VDW/kʙ    0.000000e+00 [K]
    framework-molecule Real/kʙ   0.000000e+00 [K]
    molecule-molecule VDW/kʙ     3.418348e-14 [K]
    molecule-molecule Real/kʙ    7.874677e-13 [K]
    Van der Waals (Tail)/kʙ     -1.989354e-01 [K]
    Ewald Fourier/kʙ             1.171542e+02 [K]
    Ewald self/kʙ               -3.673356e+04 [K]
    Ewald exclusion/kʙ           3.661595e+04 [K]
    intra VDW/kʙ                 0.000000e+00 [K]
    intra Coulombic/kʙ           0.000000e+00 [K]
    polarization/kʙ              0.000000e+00 [K]
    dU/dlambda VDW/kʙ            0.000000e+00 [K]
    dU/dlambda Real/kʙ           0.000000e+00 [K]
    dU/dlambda Ewald/kʙ          0.000000e+00 [K]


Initialization: Current cycle: 1400 out of 2000
===============================================================================

Box:      33.56473   0.00000   0.00000
           0.00000  33.56473   0.00000
           0.00000   0.00000  33.56473
Lengths:  33.56473  33.56473  33.56473
Angles:   90.00000  90.00000  90.00000
Rectangular boundary conditions

net charge:   0.00000000

component   0 (CO2) lambda:  0 occupancy:  1 (1.000000)
    net charge:   0.00000000 [e]

Amount of molecules per component :
-------------------------------------------------------------------------------
Component 0 (CO2)
    molecules:         6.000000e+00 molecules
    number density:    1.586726e-04 molec/A^3
    density:           1.159289e+01 kg/m^3

Total potential energy/kʙ       -9.625896e+00 [K]
-------------------------------------------------------------------------------
    external field VDW/kʙ        0.000000e+00 [K]
    external field Real/kʙ       0.000000e+00 [K]
    framework-molecule VDW/kʙ    0.000000e+00 [K]
    framework-molecule Real/kʙ   0.000000e+00 [K]
    molecule-molecule VDW/kʙ    -2.305531e+00 [K]
    molecule-molecule Real/kʙ   -1.628482e-01 [K]
    Van der Waals (Tail)/kʙ     -1.768029e+00 [K]
    Ewald Fourier/kʙ             3.474444e+02 [K]
    Ewald self/kʙ               -1.102007e+05 [K]
    Ewald exclusion/kʙ           1.098479e+05 [K]
    intra VDW/kʙ                 0.000000e+00 [K]
    intra Coulombic/kʙ           0.000000e+00 [K]
    polarization/kʙ              0.000000e+00 [K]
    dU/dlambda VDW/kʙ            0.000000e+00 [K]
    dU/dlambda Real/kʙ           0.000000e+00 [K]
    dU/dlambda Ewald/kʙ          0.000000e+00 [K]


Initialization: Current cycle: 1500 out of 2000
===============================================================================

Box:      33.43832   0.00000   0.00000
           0.00000  33.43832   0.00000
           0.00000   0.00000  33.43832
Lengths:  33.43832  33.43832  33.43832
Angles:   90.00000  90.00000  90.00000
Rectangular boundary conditions

net charge:   0.00000000

component   0 (CO2) lambda:  0 occupancy:  1 (1.000000)
    net charge:   0.00000000 [e]

Amount of molecules per component :
-------------------------------------------------------------------------------
Component 0 (CO2)
    molecules:         1.000000e+00 molecules
    number density:    2.674648e-05 molec/A^3
    density:           1.954144e+00 kg/m^3

Total potential energy/kʙ       -7.688335e-01 [K]
-------------------------------------------------------------------------------
    external field VDW/kʙ        0.000000e+00 [K]
    external field Real/kʙ       0.000000e+00 [K]
    framework-molecule VDW/kʙ    0.000000e+00 [K]
    framework-molecule Real/kʙ   0.000000e+00 [K]
    molecule-molecule VDW/kʙ    -4.862389e-01 [K]
    molecule-molecule Real/kʙ    5.574382e-03 [K]
    Van der Waals (Tail)/kʙ      1.168381e-16 [K]
    Ewald Fourier/kʙ             5.851747e+01 [K]
    Ewald self/kʙ               -1.836678e+04 [K]
    Ewald exclusion/kʙ           1.830798e+04 [K]
    intra VDW/kʙ                 0.000000e+00 [K]
    intra Coulombic/kʙ           0.000000e+00 [K]
    polarization/kʙ              0.000000e+00 [K]
    dU/dlambda VDW/kʙ            0.000000e+00 [K]
    dU/dlambda Real/kʙ           0.000000e+00 [K]
    dU/dlambda Ewald/kʙ          0.000000e+00 [K]


Initialization: Current cycle: 1600 out of 2000
===============================================================================

Box:      33.59660   0.00000   0.00000
           0.00000  33.59660   0.00000
           0.00000   0.00000  33.59660
Lengths:  33.59660  33.59660  33.59660
Angles:   90.00000  90.00000  90.00000
Rectangular boundary conditions

net charge:   0.00000000

component   0 (CO2) lambda:  0 occupancy:  1 (1.000000)
    net charge:   0.00000000 [e]

Amount of molecules per component :
-------------------------------------------------------------------------------
Component 0 (CO2)
    molecules:         4.000000e+00 molecules
    number density:    1.054809e-04 molec/A^3
    density:           7.706618e+00 kg/m^3

Total potential energy/kʙ       -2.117960e+00 [K]
-------------------------------------------------------------------------------
    external field VDW/kʙ        0.000000e+00 [K]
    external field Real/kʙ       0.000000e+00 [K]
    framework-molecule VDW/kʙ    0.000000e+00 [K]
    framework-molecule Real/kʙ   0.000000e+00 [K]
    molecule-molecule VDW/kʙ    -2.214103e-01 [K]
    molecule-molecule Real/kʙ    2.870282e-04 [K]
    Van der Waals (Tail)/kʙ     -7.835563e-01 [K]
    Ewald Fourier/kʙ             2.341093e+02 [K]
    Ewald self/kʙ               -7.346713e+04 [K]
    Ewald exclusion/kʙ           7.323191e+04 [K]
    intra VDW/kʙ                 0.000000e+00 [K]
    intra Coulombic/kʙ           0.000000e+00 [K]
    polarization/kʙ              0.000000e+00 [K]
    dU/dlambda VDW/kʙ            0.000000e+00 [K]
    dU/dlambda Real/kʙ           0.000000e+00 [K]
    dU/dlambda Ewald/kʙ          0.000000e+00 [K]


Initialization: Current cycle: 1700 out of 2000
===============================================================================

Box:      33.59567   0.00000   0.00000
           0.00000  33.59567   0.00000
           0.00000   0.00000  33.59567
Lengths:  33.59567  33.59567  33.59567
Angles:   90.00000  90.00000  90.00000
Rectangular boundary conditions

net charge:   0.00000000

component   0 (CO2) lambda:  0 occupancy:  1 (1.000000)
    net charge:   0.00000000 [e]

Amount of molecules per component :
-------------------------------------------------------------------------------
Component 0 (CO2)
    molecules:         4.000000e+00 molecules
    number density:    1.054897e-04 molec/A^3
    density:           7.707261e+00 kg/m^3

Total potential energy/kʙ       -2.241755e+02 [K]
-------------------------------------------------------------------------------
    external field VDW/kʙ        0.000000e+00 [K]
    external field Real/kʙ       0.000000e+00 [K]
    framework-molecule VDW/kʙ    0.000000e+00 [K]
    framework-molecule Real/kʙ   0.000000e+00 [K]
    molecule-molecule VDW/kʙ    -1.846405e+02 [K]
    molecule-molecule Real/kʙ   -3.796798e+01 [K]
    Van der Waals (Tail)/kʙ     -7.836217e-01 [K]
    Ewald Fourier/kʙ             2.344392e+02 [K]
    Ewald self/kʙ               -7.346713e+04 [K]
    Ewald exclusion/kʙ           7.323191e+04 [K]
    intra VDW/kʙ                 0.000000e+00 [K]
    intra Coulombic/kʙ           0.000000e+00 [K]
    polarization/kʙ              0.000000e+00 [K]
    dU/dlambda VDW/kʙ            0.000000e+00 [K]
    dU/dlambda Real/kʙ           0.000000e+00 [K]
    dU/dlambda Ewald/kʙ          0.000000e+00 [K]


Initialization: Current cycle: 1800 out of 2000
===============================================================================

Box:      33.63406   0.00000   0.00000
           0.00000  33.63406   0.00000
           0.00000   0.00000  33.63406
Lengths:  33.63406  33.63406  33.63406
Angles:   90.00000  90.00000  90.00000
Rectangular boundary conditions

net charge:   0.00000000

component   0 (CO2) lambda:  0 occupancy:  1 (1.000000)
    net charge:   0.00000000 [e]

Amount of molecules per component :
-------------------------------------------------------------------------------
Component 0 (CO2)
    molecules:         6.000000e+00 molecules
    number density:    1.576933e-04 molec/A^3
    density:           1.152135e+01 kg/m^3

Total potential energy/kʙ       -6.840519e+01 [K]
-------------------------------------------------------------------------------
    external field VDW/kʙ        0.000000e+00 [K]
    external field Real/kʙ       0.000000e+00 [K]
    framework-molecule VDW/kʙ    0.000000e+00 [K]
    framework-molecule Real/kʙ   0.000000e+00 [K]
    molecule-molecule VDW/kʙ    -4.646916e+01 [K]
    molecule-molecule Real/kʙ    8.007933e-01 [K]
    Van der Waals (Tail)/kʙ     -1.757118e+00 [K]
    Ewald Fourier/kʙ             3.318541e+02 [K]
    Ewald self/kʙ               -1.102007e+05 [K]
    Ewald exclusion/kʙ           1.098479e+05 [K]
    intra VDW/kʙ                 0.000000e+00 [K]
    intra Coulombic/kʙ           0.000000e+00 [K]
    polarization/kʙ              0.000000e+00 [K]
    dU/dlambda VDW/kʙ            0.000000e+00 [K]
    dU/dlambda Real/kʙ           0.000000e+00 [K]
    dU/dlambda Ewald/kʙ          0.000000e+00 [K]


Initialization: Current cycle: 1900 out of 2000
===============================================================================

Box:      33.69805   0.00000   0.00000
           0.00000  33.69805   0.00000
           0.00000   0.00000  33.69805
Lengths:  33.69805  33.69805  33.69805
Angles:   90.00000  90.00000  90.00000
Rectangular boundary conditions

net charge:   0.00000000

component   0 (CO2) lambda:  0 occupancy:  1 (1.000000)
    net charge:   0.00000000 [e]

Amount of molecules per component :
-------------------------------------------------------------------------------
Component 0 (CO2)
    molecules:         6.000000e+00 molecules
    number density:    1.567967e-04 molec/A^3
    density:           1.145583e+01 kg/m^3

Total potential energy/kʙ       -5.549390e+00 [K]
-------------------------------------------------------------------------------
    external field VDW/kʙ        0.000000e+00 [K]
    external field Real/kʙ       0.000000e+00 [K]
    framework-molecule VDW/kʙ    0.000000e+00 [K]
    framework-molecule Real/kʙ   0.000000e+00 [K]
    molecule-molecule VDW/kʙ    -2.331352e+00 [K]
    molecule-molecule Real/kʙ   -2.472966e-01 [K]
    Van der Waals (Tail)/kʙ     -1.747126e+00 [K]
    Ewald Fourier/kʙ             3.516102e+02 [K]
    Ewald self/kʙ               -1.102007e+05 [K]
    Ewald exclusion/kʙ           1.098479e+05 [K]
    intra VDW/kʙ                 0.000000e+00 [K]
    intra Coulombic/kʙ           0.000000e+00 [K]
    polarization/kʙ              0.000000e+00 [K]
    dU/dlambda VDW/kʙ            0.000000e+00 [K]
    dU/dlambda Real/kʙ           0.000000e+00 [K]
    dU/dlambda Ewald/kʙ          0.000000e+00 [K]


Current cycle: 0 out of 6000
===============================================================================

Box:      33.74279   0.00000   0.00000  Average:  33.74279   0.00000   0.00000
           0.00000  33.74279   0.00000             0.00000  33.74279   0.00000
           0.00000   0.00000  33.74279             0.00000   0.00000  33.74279
Lengths:  33.74279  33.74279  33.74279  Average:  33.74279  33.74279  33.74279
Angles:   90.00000  90.00000  90.00000  Average:  90.00000  90.00000  90.00000
Rectangular boundary conditions

net charge:   0.00000000

component 0 (CO2) lambda:  0 occupancy:  1 (1.000000)
    net charge:   0.00000000 [e]

Amount of molecules per component :
-------------------------------------------------------------------------------
Component 0 (CO2)
    molecules:      4.000000e+00 molecules  (4.000000e+00 +/- 0.000000e+00)
    number density: 1.041159e-04 molec./A^3 (1.041159e-04 +/- 0.000000e+00)
    density:        7.606884e+00 kg/m^3     (7.606884e+00 +/- 0.000000e+00)

Average pressure tensor: 
-------------------------------------------------------------------------------
 3.1624e+00  0.0000e+00  0.0000e+00 +/- 0.0000e+00 0.0000e+00 0.0000e+00 [bar]
 0.0000e+00  3.1624e+00  0.0000e+00 +/- 0.0000e+00 0.0000e+00 0.0000e+00 [bar]
 0.0000e+00  0.0000e+00  3.1624e+00 +/- 0.0000e+00 0.0000e+00 0.0000e+00 [bar]
Ideal-gas pressure:   3.162448e+00 +/ 0.000000e+00 [bar]
Excess pressure:      0.000000e+00 +/ 0.000000e+00 [bar]
Pressure:             3.162448e+00 +/ 0.000000e+00 [bar]

Total potential energy/kʙ  -1.540735e+00 (-1.540735e+00 +/- 0.000000e+00) [K]
-------------------------------------------------------------------------------
ExternalField-molecule
    Van der Waals/kʙ        0.000000e+00 ( 0.000000e+00 +/- 0.000000e+00) [K]
Framework-molecule
    Van der Waals/kʙ        0.000000e+00 ( 0.000000e+00 +/- 0.000000e+00) [K]
    Van der Waals (Tail)/kʙ 0.000000e+00 ( 0.000000e+00 +/- 0.000000e+00) [K]
    Coulombic Real/kʙ       0.000000e+00 ( 0.000000e+00 +/- 0.000000e+00) [K]
    Coulombic Fourier/kʙ    0.000000e+00 ( 0.000000e+00 +/- 0.000000e+00) [K]
Molecule-molecule
    Van der Waals/kʙ        0.000000e+00 ( 0.000000e+00 +/- 0.000000e+00) [K]
    Van der Waals (Tail)/kʙ-7.734160e-01 (-7.734160e-01 +/- 0.000000e+00) [K]
    Coulombic Real/kʙ       0.000000e+00 ( 0.000000e+00 +/- 0.000000e+00) [K]
    Coulombic Fourier/kʙ   -7.673189e-01 (-7.673189e-01 +/- 0.000000e+00) [K]
    Molecule Intra/kʙ       0.000000e+00 ( 0.000000e+00 +/- 0.000000e+00) [K]

Current cycle: 100 out of 6000
===============================================================================

Box:      33.63581   0.00000   0.00000  Average:  33.70309   0.00000   0.00000
           0.00000  33.63581   0.00000             0.00000  33.70309   0.00000
           0.00000   0.00000  33.63581             0.00000   0.00000  33.70309
Lengths:  33.63581  33.63581  33.63581  Average:  33.70309  33.70309  33.70309
Angles:   90.00000  90.00000  90.00000  Average:  90.00000  90.00000  90.00000
Rectangular boundary conditions

net charge:   0.00000000

component 0 (CO2) lambda:  0 occupancy:  1 (1.000000)
    net charge:   0.00000000 [e]

Amount of molecules per component :
-------------------------------------------------------------------------------
Component 0 (CO2)
    molecules:      2.000000e+00 molecules  (5.237624e+00 +/- 0.000000e+00)
    number density: 5.255623e-05 molec./A^3 (1.367473e-04 +/- 0.000000e+00)
    density:        3.839848e+00 kg/m^3     (9.990994e+00 +/- 0.000000e+00)

Average pressure tensor: 
-------------------------------------------------------------------------------
 4.0557e+00  4.5418e-01  5.5407e-02 +/- 0.0000e+00 0.0000e+00 0.0000e+00 [bar]
 4.5418e-01  3.3771e+00 -4.7006e-01 +/- 0.0000e+00 0.0000e+00 0.0000e+00 [bar]
 5.5407e-02 -4.7006e-01  3.8195e+00 +/- 0.0000e+00 0.0000e+00 0.0000e+00 [bar]
Ideal-gas pressure:   4.153605e+00 +/ 0.000000e+00 [bar]
Excess pressure:     -4.028469e-01 +/ 0.000000e+00 [bar]
Pressure:             3.750758e+00 +/ 0.000000e+00 [bar]

Total potential energy/kʙ  -8.972185e-01 (-1.012938e+02 +/- 0.000000e+00) [K]
-------------------------------------------------------------------------------
ExternalField-molecule
    Van der Waals/kʙ        0.000000e+00 ( 0.000000e+00 +/- 0.000000e+00) [K]
Framework-molecule
    Van der Waals/kʙ        0.000000e+00 ( 0.000000e+00 +/- 0.000000e+00) [K]
    Van der Waals (Tail)/kʙ 0.000000e+00 ( 0.000000e+00 +/- 0.000000e+00) [K]
    Coulombic Real/kʙ       0.000000e+00 ( 0.000000e+00 +/- 0.000000e+00) [K]
    Coulombic Fourier/kʙ    0.000000e+00 ( 0.000000e+00 +/- 0.000000e+00) [K]
Molecule-molecule
    Van der Waals/kʙ        0.000000e+00 (-9.033193e+01 +/- 0.000000e+00) [K]
    Van der Waals (Tail)/kʙ-1.952048e-01 (-1.500889e+00 +/- 0.000000e+00) [K]
    Coulombic Real/kʙ       0.000000e+00 (-1.212746e+01 +/- 0.000000e+00) [K]
    Coulombic Fourier/kʙ   -7.020137e-01 ( 2.666420e+00 +/- 0.000000e+00) [K]
    Molecule Intra/kʙ       0.000000e+00 ( 0.000000e+00 +/- 0.000000e+00) [K]

Current cycle: 200 out of 6000
===============================================================================

Box:      33.54902   0.00000   0.00000  Average:  33.65981   0.00000   0.00000
           0.00000  33.54902   0.00000             0.00000  33.65981   0.00000
           0.00000   0.00000  33.54902             0.00000   0.00000  33.65981
Lengths:  33.54902  33.54902  33.54902  Average:  33.65981  33.65981  33.65981
Angles:   90.00000  90.00000  90.00000  Average:  90.00000  90.00000  90.00000
Rectangular boundary conditions

net charge:   0.00000000

component 0 (CO2) lambda:  0 occupancy:  1 (1.000000)
    net charge:   0.00000000 [e]

Amount of molecules per component :
-------------------------------------------------------------------------------
Component 0 (CO2)
    molecules:      8.000000e+00 molecules  (4.616915e+00 +/- 0.000000e+00)
    number density: 2.118608e-04 molec./A^3 (1.209722e-04 +/- 0.000000e+00)
    density:        1.547891e+01 kg/m^3     (8.838440e+00 +/- 0.000000e+00)

Average pressure tensor: 
-------------------------------------------------------------------------------
 4.2427e+00  6.0090e-02 -1.2037e-01 +/- 0.0000e+00 0.0000e+00 0.0000e+00 [bar]
 6.0090e-02  3.3136e+00 -1.8394e-01 +/- 0.0000e+00 0.0000e+00 0.0000e+00 [bar]
-1.2037e-01 -1.8394e-01  3.5022e+00 +/- 0.0000e+00 0.0000e+00 0.0000e+00 [bar]
Ideal-gas pressure:   3.674448e+00 +/ 0.000000e+00 [bar]
Excess pressure:      1.174291e-02 +/ 0.000000e+00 [bar]
Pressure:             3.686191e+00 +/ 0.000000e+00 [bar]

Total potential energy/kʙ  -6.290730e+02 (-1.016307e+02 +/- 0.000000e+00) [K]
-------------------------------------------------------------------------------
ExternalField-molecule
    Van der Waals/kʙ        0.000000e+00 ( 0.000000e+00 +/- 0.000000e+00) [K]
Framework-molecule
    Van der Waals/kʙ        0.000000e+00 ( 0.000000e+00 +/- 0.000000e+00) [K]
    Van der Waals (Tail)/kʙ 0.000000e+00 ( 0.000000e+00 +/- 0.000000e+00) [K]
    Coulombic Real/kʙ       0.000000e+00 ( 0.000000e+00 +/- 0.000000e+00) [K]
    Coulombic Fourier/kʙ    0.000000e+00 ( 0.000000e+00 +/- 0.000000e+00) [K]
Molecule-molecule
    Van der Waals/kʙ       -4.112729e+02 (-8.494188e+01 +/- 0.000000e+00) [K]
    Van der Waals (Tail)/kʙ-3.147580e+00 (-1.384773e+00 +/- 0.000000e+00) [K]
    Coulombic Real/kʙ      -1.928178e+02 (-1.643194e+01 +/- 0.000000e+00) [K]
    Coulombic Fourier/kʙ   -2.183472e+01 ( 1.127900e+00 +/- 0.000000e+00) [K]
    Molecule Intra/kʙ       0.000000e+00 ( 0.000000e+00 +/- 0.000000e+00) [K]

Current cycle: 300 out of 6000
===============================================================================

Box:      33.72648   0.00000   0.00000  Average:  33.65929   0.00000   0.00000
           0.00000  33.72648   0.00000             0.00000  33.65929   0.00000
           0.00000   0.00000  33.72648             0.00000   0.00000  33.65929
Lengths:  33.72648  33.72648  33.72648  Average:  33.65929  33.65929  33.65929
Angles:   90.00000  90.00000  90.00000  Average:  90.00000  90.00000  90.00000
Rectangular boundary conditions

net charge:   0.00000000

component 0 (CO2) lambda:  0 occupancy:  1 (1.000000)
    net charge:   0.00000000 [e]

Amount of molecules per component :
-------------------------------------------------------------------------------
Component 0 (CO2)
    molecules:      9.000000e+00 molecules  (4.883721e+00 +/- 0.000000e+00)
    number density: 2.346008e-04 molec./A^3 (1.279540e-04 +/- 0.000000e+00)
    density:        1.714034e+01 kg/m^3     (9.348536e+00 +/- 0.000000e+00)

Average pressure tensor: 
-------------------------------------------------------------------------------
 4.2809e+00  2.0206e-02  5.2156e-02 +/- 0.0000e+00 0.0000e+00 0.0000e+00 [bar]
 2.0206e-02  3.5812e+00 -7.1639e-02 +/- 0.0000e+00 0.0000e+00 0.0000e+00 [bar]
 5.2156e-02 -7.1639e-02  3.6161e+00 +/- 0.0000e+00 0.0000e+00 0.0000e+00 [bar]
Ideal-gas pressure:   3.886513e+00 +/ 0.000000e+00 [bar]
Excess pressure:     -6.044976e-02 +/ 0.000000e+00 [bar]
Pressure:             3.826063e+00 +/ 0.000000e+00 [bar]

Total potential energy/kʙ  -4.110365e+01 (-7.762507e+01 +/- 0.000000e+00) [K]
-------------------------------------------------------------------------------
ExternalField-molecule
    Van der Waals/kʙ        0.000000e+00 ( 0.000000e+00 +/- 0.000000e+00) [K]
Framework-molecule
    Van der Waals/kʙ        0.000000e+00 ( 0.000000e+00 +/- 0.000000e+00) [K]
    Van der Waals (Tail)/kʙ 0.000000e+00 ( 0.000000e+00 +/- 0.000000e+00) [K]
    Coulombic Real/kʙ       0.000000e+00 ( 0.000000e+00 +/- 0.000000e+00) [K]
    Coulombic Fourier/kʙ    0.000000e+00 ( 0.000000e+00 +/- 0.000000e+00) [K]
Molecule-molecule
    Van der Waals/kʙ       -3.523134e+01 (-6.394978e+01 +/- 0.000000e+00) [K]
    Van der Waals (Tail)/kʙ-3.921103e+00 (-1.506157e+00 +/- 0.000000e+00) [K]
    Coulombic Real/kʙ      -5.518841e+00 (-1.215261e+01 +/- 0.000000e+00) [K]
    Coulombic Fourier/kʙ    3.567628e+00 (-1.652844e-02 +/- 0.000000e+00) [K]
    Molecule Intra/kʙ       0.000000e+00 ( 0.000000e+00 +/- 0.000000e+00) [K]

Current cycle: 400 out of 6000
===============================================================================

Box:      33.82148   0.00000   0.00000  Average:  33.68042   0.00000   0.00000
           0.00000  33.82148   0.00000             0.00000  33.68042   0.00000
           0.00000   0.00000  33.82148             0.00000   0.00000  33.68042
Lengths:  33.82148  33.82148  33.82148  Average:  33.68042  33.68042  33.68042
Angles:   90.00000  90.00000  90.00000  Average:  90.00000  90.00000  90.00000
Rectangular boundary conditions

net charge:   0.00000000

component 0 (CO2) lambda:  0 occupancy:  1 (1.000000)
    net charge:   0.00000000 [e]

Amount of molecules per component :
-------------------------------------------------------------------------------
Component 0 (CO2)
    molecules:      6.000000e+00 molecules  (5.246883e+00 +/- 0.000000e+00)
    number density: 1.550863e-04 molec./A^3 (1.371873e-04 +/- 0.000000e+00)
    density:        1.133087e+01 kg/m^3     (1.002314e+01 +/- 0.000000e+00)

Average pressure tensor: 
-------------------------------------------------------------------------------
 4.4360e+00  2.6521e-02  3.6568e-02 +/- 0.0000e+00 0.0000e+00 0.0000e+00 [bar]
 2.6521e-02  3.7390e+00 -1.3455e-01 +/- 0.0000e+00 0.0000e+00 0.0000e+00 [bar]
 3.6568e-02 -1.3455e-01  3.8540e+00 +/- 0.0000e+00 0.0000e+00 0.0000e+00 [bar]
Ideal-gas pressure:   4.166970e+00 +/ 0.000000e+00 [bar]
Excess pressure:     -1.572852e-01 +/ 0.000000e+00 [bar]
Pressure:             4.009685e+00 +/ 0.000000e+00 [bar]

Total potential energy/kʙ  -1.511197e+02 (-8.368098e+01 +/- 0.000000e+00) [K]
-------------------------------------------------------------------------------
ExternalField-molecule
    Van der Waals/kʙ        0.000000e+00 ( 0.000000e+00 +/- 0.000000e+00) [K]
Framework-molecule
    Van der Waals/kʙ        0.000000e+00 ( 0.000000e+00 +/- 0.000000e+00) [K]
    Van der Waals (Tail)/kʙ 0.000000e+00 ( 0.000000e+00 +/- 0.000000e+00) [K]
    Coulombic Real/kʙ       0.000000e+00 ( 0.000000e+00 +/- 0.000000e+00) [K]
    Coulombic Fourier/kʙ    0.000000e+00 ( 0.000000e+00 +/- 0.000000e+00) [K]
Molecule-molecule
    Van der Waals/kʙ       -9.975666e+01 (-6.358618e+01 +/- 0.000000e+00) [K]
    Van der Waals (Tail)/kʙ-1.728069e+00 (-1.491968e+00 +/- 0.000000e+00) [K]
    Coulombic Real/kʙ      -1.196764e+01 (-1.629498e+01 +/- 0.000000e+00) [K]
    Coulombic Fourier/kʙ   -3.766737e+01 (-2.307856e+00 +/- 0.000000e+00) [K]
    Molecule Intra/kʙ       0.000000e+00 ( 0.000000e+00 +/- 0.000000e+00) [K]

Current cycle: 500 out of 6000
===============================================================================

Box:      33.70692   0.00000   0.00000  Average:  33.69899   0.00000   0.00000
           0.00000  33.70692   0.00000             0.00000  33.69899   0.00000
           0.00000   0.00000  33.70692             0.00000   0.00000  33.69899
Lengths:  33.70692  33.70692  33.70692  Average:  33.69899  33.69899  33.69899
Angles:   90.00000  90.00000  90.00000  Average:  90.00000  90.00000  90.00000
Rectangular boundary conditions

net charge:   0.00000000

component 0 (CO2) lambda:  0 occupancy:  1 (1.000000)
    net charge:   0.00000000 [e]

Amount of molecules per component :
-------------------------------------------------------------------------------
Component 0 (CO2)
    molecules:      6.000000e+00 molecules  (5.395210e+00 +/- 0.000000e+00)
    number density: 1.566729e-04 molec./A^3 (1.408185e-04 +/- 0.000000e+00)
    density:        1.144679e+01 kg/m^3     (1.028844e+01 +/- 0.000000e+00)

Average pressure tensor: 
-------------------------------------------------------------------------------
 4.3204e+00  8.6584e-02  2.5221e-02 +/- 0.0000e+00 0.0000e+00 0.0000e+00 [bar]
 8.6584e-02  3.7981e+00 -7.9811e-02 +/- 0.0000e+00 0.0000e+00 0.0000e+00 [bar]
 2.5221e-02 -7.9811e-02  3.8123e+00 +/- 0.0000e+00 0.0000e+00 0.0000e+00 [bar]
Ideal-gas pressure:   4.277265e+00 +/ 0.000000e+00 [bar]
Excess pressure:     -3.003403e-01 +/ 0.000000e+00 [bar]
Pressure:             3.976925e+00 +/ 0.000000e+00 [bar]

Total potential energy/kʙ  -6.508766e+00 (-1.021396e+02 +/- 0.000000e+00) [K]
-------------------------------------------------------------------------------
ExternalField-molecule
    Van der Waals/kʙ        0.000000e+00 ( 0.000000e+00 +/- 0.000000e+00) [K]
Framework-molecule
    Van der Waals/kʙ        0.000000e+00 ( 0.000000e+00 +/- 0.000000e+00) [K]
    Van der Waals (Tail)/kʙ 0.000000e+00 ( 0.000000e+00 +/- 0.000000e+00) [K]
    Coulombic Real/kʙ       0.000000e+00 ( 0.000000e+00 +/- 0.000000e+00) [K]
    Coulombic Fourier/kʙ    0.000000e+00 ( 0.000000e+00 +/- 0.000000e+00) [K]
Molecule-molecule
    Van der Waals/kʙ       -1.799450e+00 (-8.241125e+01 +/- 0.000000e+00) [K]
    Van der Waals (Tail)/kʙ-1.745747e+00 (-1.564844e+00 +/- 0.000000e+00) [K]
    Coulombic Real/kʙ       6.772053e-01 (-1.522964e+01 +/- 0.000000e+00) [K]
    Coulombic Fourier/kʙ   -3.640774e+00 (-2.933848e+00 +/- 0.000000e+00) [K]
    Molecule Intra/kʙ       0.000000e+00 ( 0.000000e+00 +/- 0.000000e+00) [K]

Current cycle: 600 out of 6000
===============================================================================

Box:      33.65755   0.00000   0.00000  Average:  33.69804   0.00000   0.00000
           0.00000  33.65755   0.00000             0.00000  33.69804   0.00000
           0.00000   0.00000  33.65755             0.00000   0.00000  33.69804
Lengths:  33.65755  33.65755  33.65755  Average:  33.69804  33.69804  33.69804
Angles:   90.00000  90.00000  90.00000  Average:  90.00000  90.00000  90.00000
Rectangular boundary conditions

net charge:   0.00000000

component 0 (CO2) lambda:  0 occupancy:  1 (1.000000)
    net charge:   0.00000000 [e]

Amount of molecules per component :
-------------------------------------------------------------------------------
Component 0 (CO2)
    molecules:      5.000000e+00 molecules  (5.181364e+00 +/- 0.000000e+00)
    number density: 1.311362e-04 molec./A^3 (1.352670e-04 +/- 0.000000e+00)
    density:        9.581033e+00 kg/m^3     (9.882837e+00 +/- 0.000000e+00)

Average pressure tensor: 
-------------------------------------------------------------------------------
 4.1332e+00  4.8105e-02  1.9044e-02 +/- 0.0000e+00 0.0000e+00 0.0000e+00 [bar]
 4.8105e-02  3.6604e+00 -7.4728e-02 +/- 0.0000e+00 0.0000e+00 0.0000e+00 [bar]
 1.9044e-02 -7.4728e-02  3.7036e+00 +/- 0.0000e+00 0.0000e+00 0.0000e+00 [bar]
Ideal-gas pressure:   4.108641e+00 +/ 0.000000e+00 [bar]
Excess pressure:     -2.762702e-01 +/ 0.000000e+00 [bar]
Pressure:             3.832371e+00 +/ 0.000000e+00 [bar]

Total potential energy/kʙ  -4.588008e-01 (-8.960925e+01 +/- 0.000000e+00) [K]
-------------------------------------------------------------------------------
ExternalField-molecule
    Van der Waals/kʙ        0.000000e+00 ( 0.000000e+00 +/- 0.000000e+00) [K]
Framework-molecule
    Van der Waals/kʙ        0.000000e+00 ( 0.000000e+00 +/- 0.000000e+00) [K]
    Van der Waals (Tail)/kʙ 0.000000e+00 ( 0.000000e+00 +/- 0.000000e+00) [K]
    Coulombic Real/kʙ       0.000000e+00 ( 0.000000e+00 +/- 0.000000e+00) [K]
    Coulombic Fourier/kʙ    0.000000e+00 ( 0.000000e+00 +/- 0.000000e+00) [K]
Molecule-molecule
    Van der Waals/kʙ       -2.449812e+00 (-7.239874e+01 +/- 0.000000e+00) [K]
    Van der Waals (Tail)/kʙ-1.217668e+00 (-1.438835e+00 +/- 0.000000e+00) [K]
    Coulombic Real/kʙ       1.238852e+00 (-1.284904e+01 +/- 0.000000e+00) [K]
    Coulombic Fourier/kʙ    1.969827e+00 (-2.922637e+00 +/- 0.000000e+00) [K]
    Molecule Intra/kʙ       0.000000e+00 ( 0.000000e+00 +/- 0.000000e+00) [K]

Current cycle: 700 out of 6000
===============================================================================

Box:      33.73446   0.00000   0.00000  Average:  33.70488   0.00000   0.00000
           0.00000  33.73446   0.00000             0.00000  33.70488   0.00000
           0.00000   0.00000  33.73446             0.00000   0.00000  33.70488
Lengths:  33.73446  33.73446  33.73446  Average:  33.70488  33.70488  33.70488
Angles:   90.00000  90.00000  90.00000  Average:  90.00000  90.00000  90.00000
Rectangular boundary conditions

net charge:   0.00000000

component 0 (CO2) lambda:  0 occupancy:  1 (1.000000)
    net charge:   0.00000000 [e]

Amount of molecules per component :
-------------------------------------------------------------------------------
Component 0 (CO2)
    molecules:      2.000000e+00 molecules  (5.182596e+00 +/- 0.000000e+00)
    number density: 5.209652e-05 molec./A^3 (1.352389e-04 +/- 0.000000e+00)
    density:        3.806261e+00 kg/m^3     (9.880784e+00 +/- 0.000000e+00)

Average pressure tensor: 
-------------------------------------------------------------------------------
 4.1158e+00  3.9789e-02  3.5957e-03 +/- 0.0000e+00 0.0000e+00 0.0000e+00 [bar]
 3.9789e-02  3.6869e+00 -6.1016e-02 +/- 0.0000e+00 0.0000e+00 0.0000e+00 [bar]
 3.5957e-03 -6.1016e-02  3.7421e+00 +/- 0.0000e+00 0.0000e+00 0.0000e+00 [bar]
Ideal-gas pressure:   4.107787e+00 +/ 0.000000e+00 [bar]
Excess pressure:     -2.595268e-01 +/ 0.000000e+00 [bar]
Pressure:             3.848260e+00 +/ 0.000000e+00 [bar]

Total potential energy/kʙ  -9.660590e-01 (-8.090001e+01 +/- 0.000000e+00) [K]
-------------------------------------------------------------------------------
ExternalField-molecule
    Van der Waals/kʙ        0.000000e+00 ( 0.000000e+00 +/- 0.000000e+00) [K]
Framework-molecule
    Van der Waals/kʙ        0.000000e+00 ( 0.000000e+00 +/- 0.000000e+00) [K]
    Van der Waals (Tail)/kʙ 0.000000e+00 ( 0.000000e+00 +/- 0.000000e+00) [K]
    Coulombic Real/kʙ       0.000000e+00 ( 0.000000e+00 +/- 0.000000e+00) [K]
    Coulombic Fourier/kʙ    0.000000e+00 ( 0.000000e+00 +/- 0.000000e+00) [K]
Molecule-molecule
    Van der Waals/kʙ        0.000000e+00 (-6.754450e+01 +/- 0.000000e+00) [K]
    Van der Waals (Tail)/kʙ-1.934973e-01 (-1.440254e+00 +/- 0.000000e+00) [K]
    Coulombic Real/kʙ       0.000000e+00 (-9.814437e+00 +/- 0.000000e+00) [K]
    Coulombic Fourier/kʙ   -7.725617e-01 (-2.100814e+00 +/- 0.000000e+00) [K]
    Molecule Intra/kʙ       0.000000e+00 ( 0.000000e+00 +/- 0.000000e+00) [K]

Current cycle: 800 out of 6000
===============================================================================

Box:      33.68338   0.00000   0.00000  Average:  33.70767   0.00000   0.00000
           0.00000  33.68338   0.00000             0.00000  33.70767   0.00000
           0.00000   0.00000  33.68338             0.00000   0.00000  33.70767
Lengths:  33.68338  33.68338  33.68338  Average:  33.70767  33.70767  33.70767
Angles:   90.00000  90.00000  90.00000  Average:  90.00000  90.00000  90.00000
Rectangular boundary conditions

net charge:   0.00000000

component 0 (CO2) lambda:  0 occupancy:  1 (1.000000)
    net charge:   0.00000000 [e]

Amount of molecules per component :
-------------------------------------------------------------------------------
Component 0 (CO2)
    molecules:      2.000000e+00 molecules  (5.287141e+00 +/- 0.000000e+00)
    number density: 5.233387e-05 molec./A^3 (1.379407e-04 +/- 0.000000e+00)
    density:        3.823602e+00 kg/m^3     (1.007818e+01 +/- 0.000000e+00)

Average pressure tensor: 
-------------------------------------------------------------------------------
 4.4450e+00  1.6562e-01  3.4334e-02 +/- 0.0000e+00 0.0000e+00 0.0000e+00 [bar]
 1.6562e-01  3.7874e+00 -2.4186e-02 +/- 0.0000e+00 0.0000e+00 0.0000e+00 [bar]
 3.4334e-02 -2.4186e-02  3.8444e+00 +/- 0.0000e+00 0.0000e+00 0.0000e+00 [bar]
Ideal-gas pressure:   4.189854e+00 +/ 0.000000e+00 [bar]
Excess pressure:     -1.642350e-01 +/ 0.000000e+00 [bar]
Pressure:             4.025619e+00 +/ 0.000000e+00 [bar]

Total potential energy/kʙ  -1.132019e+00 (-1.156964e+02 +/- 0.000000e+00) [K]
-------------------------------------------------------------------------------
ExternalField-molecule
    Van der Waals/kʙ        0.000000e+00 ( 0.000000e+00 +/- 0.000000e+00) [K]
Framework-molecule
    Van der Waals/kʙ        0.000000e+00 ( 0.000000e+00 +/- 0.000000e+00) [K]
    Van der Waals (Tail)/kʙ 0.000000e+00 ( 0.000000e+00 +/- 0.000000e+00) [K]
    Coulombic Real/kʙ       0.000000e+00 ( 0.000000e+00 +/- 0.000000e+00) [K]
    Coulombic Fourier/kʙ    0.000000e+00 ( 0.000000e+00 +/- 0.000000e+00) [K]
Molecule-molecule
    Van der Waals/kʙ        0.000000e+00 (-7.967058e+01 +/- 0.000000e+00) [K]
    Van der Waals (Tail)/kʙ-1.943789e-01 (-1.557957e+00 +/- 0.000000e+00) [K]
    Coulombic Real/kʙ       0.000000e+00 (-3.037296e+01 +/- 0.000000e+00) [K]
    Coulombic Fourier/kʙ   -9.376406e-01 (-4.094862e+00 +/- 0.000000e+00) [K]
    Molecule Intra/kʙ       0.000000e+00 ( 0.000000e+00 +/- 0.000000e+00) [K]

Current cycle: 900 out of 6000
===============================================================================

Box:      33.73993   0.00000   0.00000  Average:  33.70641   0.00000   0.00000
           0.00000  33.73993   0.00000             0.00000  33.70641   0.00000
           0.00000   0.00000  33.73993             0.00000   0.00000  33.70641
Lengths:  33.73993  33.73993  33.73993  Average:  33.70641  33.70641  33.70641
Angles:   90.00000  90.00000  90.00000  Average:  90.00000  90.00000  90.00000
Rectangular boundary conditions

net charge:   0.00000000

component 0 (CO2) lambda:  0 occupancy:  1 (1.000000)
    net charge:   0.00000000 [e]

Amount of molecules per component :
-------------------------------------------------------------------------------
Component 0 (CO2)
    molecules:      7.000000e+00 molecules  (5.301887e+00 +/- 0.000000e+00)
    number density: 1.822491e-04 molec./A^3 (1.383500e-04 +/- 0.000000e+00)
    density:        1.331543e+01 kg/m^3     (1.010809e+01 +/- 0.000000e+00)

Average pressure tensor: 
-------------------------------------------------------------------------------
 4.3788e+00  1.4978e-01  4.9762e-02 +/- 0.0000e+00 0.0000e+00 0.0000e+00 [bar]
 1.4978e-01  3.8288e+00 -3.0465e-02 +/- 0.0000e+00 0.0000e+00 0.0000e+00 [bar]
 4.9762e-02 -3.0465e-02  3.8194e+00 +/- 0.0000e+00 0.0000e+00 0.0000e+00 [bar]
Ideal-gas pressure:   4.202286e+00 +/ 0.000000e+00 [bar]
Excess pressure:     -1.932879e-01 +/ 0.000000e+00 [bar]
Pressure:             4.008998e+00 +/ 0.000000e+00 [bar]

Total potential energy/kʙ  -3.525813e+02 (-1.215575e+02 +/- 0.000000e+00) [K]
-------------------------------------------------------------------------------
ExternalField-molecule
    Van der Waals/kʙ        0.000000e+00 ( 0.000000e+00 +/- 0.000000e+00) [K]
Framework-molecule
    Van der Waals/kʙ        0.000000e+00 ( 0.000000e+00 +/- 0.000000e+00) [K]
    Van der Waals (Tail)/kʙ 0.000000e+00 ( 0.000000e+00 +/- 0.000000e+00) [K]
    Coulombic Real/kʙ       0.000000e+00 ( 0.000000e+00 +/- 0.000000e+00) [K]
    Coulombic Fourier/kʙ    0.000000e+00 ( 0.000000e+00 +/- 0.000000e+00) [K]
Molecule-molecule
    Van der Waals/kʙ       -2.499721e+02 (-8.306162e+01 +/- 0.000000e+00) [K]
    Van der Waals (Tail)/kʙ-2.369189e+00 (-1.604115e+00 +/- 0.000000e+00) [K]
    Coulombic Real/kʙ      -1.214619e+02 (-3.293903e+01 +/- 0.000000e+00) [K]
    Coulombic Fourier/kʙ    2.122185e+01 (-3.952691e+00 +/- 0.000000e+00) [K]
    Molecule Intra/kʙ       0.000000e+00 ( 0.000000e+00 +/- 0.000000e+00) [K]

Current cycle: 1000 out of 6000
===============================================================================

Box:      33.67388   0.00000   0.00000  Average:  33.70022   0.00000   0.00000
           0.00000  33.67388   0.00000             0.00000  33.70022   0.00000
           0.00000   0.00000  33.67388             0.00000   0.00000  33.70022
Lengths:  33.67388  33.67388  33.67388  Average:  33.70022  33.70022  33.70022
Angles:   90.00000  90.00000  90.00000  Average:  90.00000  90.00000  90.00000
Rectangular boundary conditions

net charge:   0.00000000

component 0 (CO2) lambda:  0 occupancy:  1 (1.000000)
    net charge:   0.00000000 [e]

Amount of molecules per component :
-------------------------------------------------------------------------------
Component 0 (CO2)
    molecules:      3.000000e+00 molecules  (5.187812e+00 +/- 0.000000e+00)
    number density: 7.856732e-05 molec./A^3 (1.354320e-04 +/- 0.000000e+00)
    density:        5.740263e+00 kg/m^3     (9.894895e+00 +/- 0.000000e+00)

Average pressure tensor: 
-------------------------------------------------------------------------------
 4.2968e+00  1.5851e-01  1.2330e-02 +/- 0.0000e+00 0.0000e+00 0.0000e+00 [bar]
 1.5851e-01  3.7964e+00 -3.0402e-02 +/- 0.0000e+00 0.0000e+00 0.0000e+00 [bar]
 1.2330e-02 -3.0402e-02  3.7888e+00 +/- 0.0000e+00 0.0000e+00 0.0000e+00 [bar]
Ideal-gas pressure:   4.113654e+00 +/ 0.000000e+00 [bar]
Excess pressure:     -1.530106e-01 +/ 0.000000e+00 [bar]
Pressure:             3.960643e+00 +/ 0.000000e+00 [bar]

Total potential energy/kʙ  -4.746807e-01 (-1.157209e+02 +/- 0.000000e+00) [K]
-------------------------------------------------------------------------------
ExternalField-molecule
    Van der Waals/kʙ        0.000000e+00 ( 0.000000e+00 +/- 0.000000e+00) [K]
Framework-molecule
    Van der Waals/kʙ        0.000000e+00 ( 0.000000e+00 +/- 0.000000e+00) [K]
    Van der Waals (Tail)/kʙ 0.000000e+00 ( 0.000000e+00 +/- 0.000000e+00) [K]
    Coulombic Real/kʙ       0.000000e+00 ( 0.000000e+00 +/- 0.000000e+00) [K]
    Coulombic Fourier/kʙ    0.000000e+00 ( 0.000000e+00 +/- 0.000000e+00) [K]
Molecule-molecule
    Van der Waals/kʙ        0.000000e+00 (-7.753705e+01 +/- 0.000000e+00) [K]
    Van der Waals (Tail)/kʙ-4.377230e-01 (-1.534501e+00 +/- 0.000000e+00) [K]
    Coulombic Real/kʙ       0.000000e+00 (-3.264538e+01 +/- 0.000000e+00) [K]
    Coulombic Fourier/kʙ   -3.695767e-02 (-4.003997e+00 +/- 0.000000e+00) [K]
    Molecule Intra/kʙ       0.000000e+00 ( 0.000000e+00 +/- 0.000000e+00) [K]

Current cycle: 1100 out of 6000
===============================================================================

Box:      33.72980   0.00000   0.00000  Average:  33.69876   0.00000   0.00000
           0.00000  33.72980   0.00000             0.00000  33.69876   0.00000
           0.00000   0.00000  33.72980             0.00000   0.00000  33.69876
Lengths:  33.72980  33.72980  33.72980  Average:  33.69876  33.69876  33.69876
Angles:   90.00000  90.00000  90.00000  Average:  90.00000  90.00000  90.00000
Rectangular boundary conditions

net charge:   0.00000000

component 0 (CO2) lambda:  0 occupancy:  1 (1.000000)
    net charge:   0.00000000 [e]

Amount of molecules per component :
-------------------------------------------------------------------------------
Component 0 (CO2)
    molecules:      4.000000e+00 molecules  (5.110808e+00 +/- 0.000000e+00)
    number density: 1.042362e-04 molec./A^3 (1.334440e-04 +/- 0.000000e+00)
    density:        7.615676e+00 kg/m^3     (9.749650e+00 +/- 0.000000e+00)

Average pressure tensor: 
-------------------------------------------------------------------------------
 4.2334e+00  1.8312e-01  5.2621e-02 +/- 0.0000e+00 0.0000e+00 0.0000e+00 [bar]
 1.8312e-01  3.7964e+00  1.3223e-03 +/- 0.0000e+00 0.0000e+00 0.0000e+00 [bar]
 5.2621e-02  1.3223e-03  3.7597e+00 +/- 0.0000e+00 0.0000e+00 0.0000e+00 [bar]
Ideal-gas pressure:   4.053270e+00 +/ 0.000000e+00 [bar]
Excess pressure:     -1.234162e-01 +/ 0.000000e+00 [bar]
Pressure:             3.929854e+00 +/ 0.000000e+00 [bar]

Total potential energy/kʙ  -2.524987e+00 (-1.078237e+02 +/- 0.000000e+00) [K]
-------------------------------------------------------------------------------
ExternalField-molecule
    Van der Waals/kʙ        0.000000e+00 ( 0.000000e+00 +/- 0.000000e+00) [K]
Framework-molecule
    Van der Waals/kʙ        0.000000e+00 ( 0.000000e+00 +/- 0.000000e+00) [K]
    Van der Waals (Tail)/kʙ 0.000000e+00 ( 0.000000e+00 +/- 0.000000e+00) [K]
    Coulombic Real/kʙ       0.000000e+00 ( 0.000000e+00 +/- 0.000000e+00) [K]
    Coulombic Fourier/kʙ    0.000000e+00 ( 0.000000e+00 +/- 0.000000e+00) [K]
Molecule-molecule
    Van der Waals/kʙ        0.000000e+00 (-7.378485e+01 +/- 0.000000e+00) [K]
    Van der Waals (Tail)/kʙ-7.743099e-01 (-1.481988e+00 +/- 0.000000e+00) [K]
    Coulombic Real/kʙ       0.000000e+00 (-2.876071e+01 +/- 0.000000e+00) [K]
    Coulombic Fourier/kʙ   -1.750677e+00 (-3.796109e+00 +/- 0.000000e+00) [K]
    Molecule Intra/kʙ       0.000000e+00 ( 0.000000e+00 +/- 0.000000e+00) [K]

Current cycle: 1200 out of 6000
===============================================================================

Box:      33.60839   0.00000   0.00000  Average:  33.69561   0.00000   0.00000
           0.00000  33.60839   0.00000             0.00000  33.69561   0.00000
           0.00000   0.00000  33.60839             0.00000   0.00000  33.69561
Lengths:  33.60839  33.60839  33.60839  Average:  33.69561  33.69561  33.69561
Angles:   90.00000  90.00000  90.00000  Average:  90.00000  90.00000  90.00000
Rectangular boundary conditions

net charge:   0.00000000

component 0 (CO2) lambda:  0 occupancy:  1 (1.000000)
    net charge:   0.00000000 [e]

Amount of molecules per component :
-------------------------------------------------------------------------------
Component 0 (CO2)
    molecules:      5.000000e+00 molecules  (5.072440e+00 +/- 0.000000e+00)
    number density: 1.317125e-04 molec./A^3 (1.324833e-04 +/- 0.000000e+00)
    density:        9.623142e+00 kg/m^3     (9.679454e+00 +/- 0.000000e+00)

Average pressure tensor: 
-------------------------------------------------------------------------------
 4.1809e+00  1.5935e-01  5.7384e-02 +/- 0.0000e+00 0.0000e+00 0.0000e+00 [bar]
 1.5935e-01  3.7796e+00  1.0603e-02 +/- 0.0000e+00 0.0000e+00 0.0000e+00 [bar]
 5.7384e-02  1.0603e-02  3.7448e+00 +/- 0.0000e+00 0.0000e+00 0.0000e+00 [bar]
Ideal-gas pressure:   4.024087e+00 +/ 0.000000e+00 [bar]
Excess pressure:     -1.223373e-01 +/ 0.000000e+00 [bar]
Pressure:             3.901750e+00 +/ 0.000000e+00 [bar]

Total potential energy/kʙ  -3.294122e+00 (-1.006527e+02 +/- 0.000000e+00) [K]
-------------------------------------------------------------------------------
ExternalField-molecule
    Van der Waals/kʙ        0.000000e+00 ( 0.000000e+00 +/- 0.000000e+00) [K]
Framework-molecule
    Van der Waals/kʙ        0.000000e+00 ( 0.000000e+00 +/- 0.000000e+00) [K]
    Van der Waals (Tail)/kʙ 0.000000e+00 ( 0.000000e+00 +/- 0.000000e+00) [K]
    Coulombic Real/kʙ       0.000000e+00 ( 0.000000e+00 +/- 0.000000e+00) [K]
    Coulombic Fourier/kʙ    0.000000e+00 ( 0.000000e+00 +/- 0.000000e+00) [K]
Molecule-molecule
    Van der Waals/kʙ       -3.455796e-01 (-6.857744e+01 +/- 0.000000e+00) [K]
    Van der Waals (Tail)/kʙ-1.223019e+00 (-1.454065e+00 +/- 0.000000e+00) [K]
    Coulombic Real/kʙ       8.449263e-03 (-2.676364e+01 +/- 0.000000e+00) [K]
    Coulombic Fourier/kʙ   -1.733972e+00 (-3.857518e+00 +/- 0.000000e+00) [K]
    Molecule Intra/kʙ       0.000000e+00 ( 0.000000e+00 +/- 0.000000e+00) [K]

Current cycle: 1300 out of 6000
===============================================================================

Box:      33.73370   0.00000   0.00000  Average:  33.69015   0.00000   0.00000
           0.00000  33.73370   0.00000             0.00000  33.69015   0.00000
           0.00000   0.00000  33.73370             0.00000   0.00000  33.69015
Lengths:  33.73370  33.73370  33.73370  Average:  33.69015  33.69015  33.69015
Angles:   90.00000  90.00000  90.00000  Average:  90.00000  90.00000  90.00000
Rectangular boundary conditions

net charge:   0.00000000

component 0 (CO2) lambda:  0 occupancy:  1 (1.000000)
    net charge:   0.00000000 [e]

Amount of molecules per component :
-------------------------------------------------------------------------------
Component 0 (CO2)
    molecules:      2.000000e+00 molecules  (4.946195e+00 +/- 0.000000e+00)
    number density: 5.210006e-05 molec./A^3 (1.292378e-04 +/- 0.000000e+00)
    density:        3.806519e+00 kg/m^3     (9.442337e+00 +/- 0.000000e+00)

Average pressure tensor: 
-------------------------------------------------------------------------------
 4.0192e+00  1.5325e-01  6.5862e-02 +/- 0.0000e+00 0.0000e+00 0.0000e+00 [bar]
 1.5325e-01  3.6956e+00  8.8325e-03 +/- 0.0000e+00 0.0000e+00 0.0000e+00 [bar]
 6.5862e-02  8.8325e-03  3.6630e+00 +/- 0.0000e+00 0.0000e+00 0.0000e+00 [bar]
Ideal-gas pressure:   3.925510e+00 +/ 0.000000e+00 [bar]
Excess pressure:     -1.328868e-01 +/ 0.000000e+00 [bar]
Pressure:             3.792623e+00 +/ 0.000000e+00 [bar]

Total potential energy/kʙ  -9.725182e-01 (-9.757401e+01 +/- 0.000000e+00) [K]
-------------------------------------------------------------------------------
ExternalField-molecule
    Van der Waals/kʙ        0.000000e+00 ( 0.000000e+00 +/- 0.000000e+00) [K]
Framework-molecule
    Van der Waals/kʙ        0.000000e+00 ( 0.000000e+00 +/- 0.000000e+00) [K]
    Van der Waals (Tail)/kʙ 0.000000e+00 ( 0.000000e+00 +/- 0.000000e+00) [K]
    Coulombic Real/kʙ       0.000000e+00 ( 0.000000e+00 +/- 0.000000e+00) [K]
    Coulombic Fourier/kʙ    0.000000e+00 ( 0.000000e+00 +/- 0.000000e+00) [K]
Molecule-molecule
    Van der Waals/kʙ        0.000000e+00 (-6.706105e+01 +/- 0.000000e+00) [K]
    Van der Waals (Tail)/kʙ-1.935104e-01 (-1.381510e+00 +/- 0.000000e+00) [K]
    Coulombic Real/kʙ       0.000000e+00 (-2.517231e+01 +/- 0.000000e+00) [K]
    Coulombic Fourier/kʙ   -7.790078e-01 (-3.959139e+00 +/- 0.000000e+00) [K]
    Molecule Intra/kʙ       0.000000e+00 ( 0.000000e+00 +/- 0.000000e+00) [K]

Current cycle: 1400 out of 6000
===============================================================================

Box:      33.61268   0.00000   0.00000  Average:  33.68729   0.00000   0.00000
           0.00000  33.61268   0.00000             0.00000  33.68729   0.00000
           0.00000   0.00000  33.61268             0.00000   0.00000  33.68729
Lengths:  33.61268  33.61268  33.61268  Average:  33.68729  33.68729  33.68729
Angles:   90.00000  90.00000  90.00000  Average:  90.00000  90.00000  90.00000
Rectangular boundary conditions

net charge:   0.00000000

component 0 (CO2) lambda:  0 occupancy:  1 (1.000000)
    net charge:   0.00000000 [e]

Amount of molecules per component :
-------------------------------------------------------------------------------
Component 0 (CO2)
    molecules:      2.000000e+00 molecules  (4.857959e+00 +/- 0.000000e+00)
    number density: 5.266484e-05 molec./A^3 (1.269567e-04 +/- 0.000000e+00)
    density:        3.847783e+00 kg/m^3     (9.275673e+00 +/- 0.000000e+00)

Average pressure tensor: 
-------------------------------------------------------------------------------
 3.9420e+00  1.4468e-01  6.3517e-02 +/- 0.0000e+00 0.0000e+00 0.0000e+00 [bar]
 1.4468e-01  3.6378e+00  7.9184e-03 +/- 0.0000e+00 0.0000e+00 0.0000e+00 [bar]
 6.3517e-02  7.9184e-03  3.6095e+00 +/- 0.0000e+00 0.0000e+00 0.0000e+00 [bar]
Ideal-gas pressure:   3.856221e+00 +/ 0.000000e+00 [bar]
Excess pressure:     -1.264660e-01 +/ 0.000000e+00 [bar]
Pressure:             3.729755e+00 +/ 0.000000e+00 [bar]

Total potential energy/kʙ  -8.748798e-01 (-9.129154e+01 +/- 0.000000e+00) [K]
-------------------------------------------------------------------------------
ExternalField-molecule
    Van der Waals/kʙ        0.000000e+00 ( 0.000000e+00 +/- 0.000000e+00) [K]
Framework-molecule
    Van der Waals/kʙ        0.000000e+00 ( 0.000000e+00 +/- 0.000000e+00) [K]
    Van der Waals (Tail)/kʙ 0.000000e+00 ( 0.000000e+00 +/- 0.000000e+00) [K]
    Coulombic Real/kʙ       0.000000e+00 ( 0.000000e+00 +/- 0.000000e+00) [K]
    Coulombic Fourier/kʙ    0.000000e+00 ( 0.000000e+00 +/- 0.000000e+00) [K]
Molecule-molecule
    Van der Waals/kʙ        0.000000e+00 (-6.439581e+01 +/- 0.000000e+00) [K]
    Van der Waals (Tail)/kʙ-1.956082e-01 (-1.331556e+00 +/- 0.000000e+00) [K]
    Coulombic Real/kʙ       0.000000e+00 (-2.221014e+01 +/- 0.000000e+00) [K]
    Coulombic Fourier/kʙ   -6.792716e-01 (-3.354035e+00 +/- 0.000000e+00) [K]
    Molecule Intra/kʙ       0.000000e+00 ( 0.000000e+00 +/- 0.000000e+00) [K]

Current cycle: 1500 out of 6000
===============================================================================

Box:      33.72396   0.00000   0.00000  Average:  33.68729   0.00000   0.00000
           0.00000  33.72396   0.00000             0.00000  33.68729   0.00000
           0.00000   0.00000  33.72396             0.00000   0.00000  33.68729
[...]
    number density: 3.108206e-04 molec./A^3 (1.951924e-04 +/- 5.397069e-05)
    density:        2.270908e+01 kg/m^3     (1.426109e+01 +/- 3.943191e+00)

Average pressure tensor: 
-------------------------------------------------------------------------------
 5.6456e+00 -2.0968e-01  8.5382e-02 +/- 1.2457e+00 3.8410e-01 3.0810e-01 [bar]
-2.0968e-01  5.7338e+00 -5.9597e-02 +/- 3.8410e-01 1.8272e+00 2.9436e-01 [bar]
 8.5382e-02 -5.9597e-02  5.5463e+00 +/- 3.0810e-01 2.9436e-01 1.3961e+00 [bar]
Ideal-gas pressure:   5.928834e+00 +/ 1.639322e+00 [bar]
Excess pressure:     -2.869228e-01 +/ 2.760373e-01 [bar]
Pressure:             5.641911e+00 +/ 1.474995e+00 [bar]

Total potential energy/kʙ  -1.022653e+03 (-2.851461e+02 +/- 1.405990e+02) [K]
-------------------------------------------------------------------------------
ExternalField-molecule
    Van der Waals/kʙ        0.000000e+00 ( 0.000000e+00 +/- 0.000000e+00) [K]
Framework-molecule
    Van der Waals/kʙ        0.000000e+00 ( 0.000000e+00 +/- 0.000000e+00) [K]
    Van der Waals (Tail)/kʙ 0.000000e+00 ( 0.000000e+00 +/- 0.000000e+00) [K]
    Coulombic Real/kʙ       0.000000e+00 ( 0.000000e+00 +/- 0.000000e+00) [K]
    Coulombic Fourier/kʙ    0.000000e+00 ( 0.000000e+00 +/- 0.000000e+00) [K]
Molecule-molecule
    Van der Waals/kʙ       -6.229465e+02 (-2.013434e+02 +/- 1.091928e+02) [K]
    Van der Waals (Tail)/kʙ-6.926713e+00 (-3.229935e+00 +/- 1.579193e+00) [K]
    Coulombic Real/kʙ      -3.803763e+02 (-7.395686e+01 +/- 3.422516e+01) [K]
    Coulombic Fourier/kʙ   -1.240374e+01 (-6.615905e+00 +/- 3.314993e+00) [K]
    Molecule Intra/kʙ       0.000000e+00 ( 0.000000e+00 +/- 0.000000e+00) [K]

Current cycle: 5800 out of 6000
===============================================================================

Box:      33.95994   0.00000   0.00000  Average:  33.78982   0.00000   0.00000
           0.00000  33.95994   0.00000             0.00000  33.78982   0.00000
           0.00000   0.00000  33.95994             0.00000   0.00000  33.78982
Lengths:  33.95994  33.95994  33.95994  Average:  33.78982  33.78982  33.78982
Angles:   90.00000  90.00000  90.00000  Average:  90.00000  90.00000  90.00000
Rectangular boundary conditions

net charge:   0.00000000

component 0 (CO2) lambda:  0 occupancy:  1 (1.000000)
    net charge:   0.00000000 [e]

Amount of molecules per component :
-------------------------------------------------------------------------------
Component 0 (CO2)
    molecules:      1.100000e+01 molecules  (7.579210e+00 +/- 2.112551e+00)
    number density: 2.808614e-04 molec./A^3 (1.960447e-04 +/- 5.366524e-05)
    density:        2.052021e+01 kg/m^3     (1.432336e+01 +/- 3.920874e+00)

Average pressure tensor: 
-------------------------------------------------------------------------------
 5.6587e+00 -2.3292e-01  7.2005e-02 +/- 1.2485e+00 3.7850e-01 3.1792e-01 [bar]
-2.3292e-01  5.7734e+00 -6.9864e-02 +/- 3.7850e-01 1.8175e+00 3.0362e-01 [bar]
 7.2005e-02 -6.9864e-02  5.5586e+00 +/- 3.1792e-01 3.0362e-01 1.3994e+00 [bar]
Ideal-gas pressure:   5.954721e+00 +/ 1.630044e+00 [bar]
Excess pressure:     -2.911695e-01 +/ 2.504830e-01 [bar]
Pressure:             5.663552e+00 +/ 1.477493e+00 [bar]

Total potential energy/kʙ  -3.402833e+02 (-2.903791e+02 +/- 1.410691e+02) [K]
-------------------------------------------------------------------------------
ExternalField-molecule
    Van der Waals/kʙ        0.000000e+00 ( 0.000000e+00 +/- 0.000000e+00) [K]
Framework-molecule
    Van der Waals/kʙ        0.000000e+00 ( 0.000000e+00 +/- 0.000000e+00) [K]
    Van der Waals (Tail)/kʙ 0.000000e+00 ( 0.000000e+00 +/- 0.000000e+00) [K]
    Coulombic Real/kʙ       0.000000e+00 ( 0.000000e+00 +/- 0.000000e+00) [K]
    Coulombic Fourier/kʙ    0.000000e+00 ( 0.000000e+00 +/- 0.000000e+00) [K]
Molecule-molecule
    Van der Waals/kʙ       -3.264239e+02 (-2.043176e+02 +/- 1.086156e+02) [K]
    Van der Waals (Tail)/kʙ-5.737477e+00 (-3.250806e+00 +/- 1.565365e+00) [K]
    Coulombic Real/kʙ      -1.869096e+01 (-7.610643e+01 +/- 3.621977e+01) [K]
    Coulombic Fourier/kʙ    1.056909e+01 (-6.704303e+00 +/- 3.148617e+00) [K]
    Molecule Intra/kʙ       0.000000e+00 ( 0.000000e+00 +/- 0.000000e+00) [K]

Current cycle: 5900 out of 6000
===============================================================================

Box:      33.88621   0.00000   0.00000  Average:  33.79187   0.00000   0.00000
           0.00000  33.88621   0.00000             0.00000  33.79187   0.00000
           0.00000   0.00000  33.88621             0.00000   0.00000  33.79187
Lengths:  33.88621  33.88621  33.88621  Average:  33.79187  33.79187  33.79187
Angles:   90.00000  90.00000  90.00000  Average:  90.00000  90.00000  90.00000
Rectangular boundary conditions

net charge:   0.00000000

component 0 (CO2) lambda:  0 occupancy:  1 (1.000000)
    net charge:   0.00000000 [e]

Amount of molecules per component :
-------------------------------------------------------------------------------
Component 0 (CO2)
    molecules:      9.000000e+00 molecules  (7.563294e+00 +/- 2.115048e+00)
    number density: 2.312989e-04 molec./A^3 (1.956074e-04 +/- 5.373969e-05)
    density:        1.689909e+01 kg/m^3     (1.429141e+01 +/- 3.926314e+00)

Average pressure tensor: 
-------------------------------------------------------------------------------
 5.6894e+00 -2.2532e-01  7.2637e-02 +/- 1.2590e+00 3.7836e-01 3.1502e-01 [bar]
-2.2532e-01  5.7556e+00 -6.8588e-02 +/- 3.7836e-01 1.8195e+00 2.8177e-01 [bar]
 7.2637e-02 -6.8588e-02  5.5306e+00 +/- 3.1502e-01 2.8177e-01 1.3891e+00 [bar]
Ideal-gas pressure:   5.941440e+00 +/ 1.632306e+00 [bar]
Excess pressure:     -2.828872e-01 +/ 2.582426e-01 [bar]
Pressure:             5.658553e+00 +/ 1.476358e+00 [bar]

Total potential energy/kʙ  -4.861392e+01 (-2.891990e+02 +/- 1.407475e+02) [K]
-------------------------------------------------------------------------------
ExternalField-molecule
    Van der Waals/kʙ        0.000000e+00 ( 0.000000e+00 +/- 0.000000e+00) [K]
Framework-molecule
    Van der Waals/kʙ        0.000000e+00 ( 0.000000e+00 +/- 0.000000e+00) [K]
    Van der Waals (Tail)/kʙ 0.000000e+00 ( 0.000000e+00 +/- 0.000000e+00) [K]
    Coulombic Real/kʙ       0.000000e+00 ( 0.000000e+00 +/- 0.000000e+00) [K]
    Coulombic Fourier/kʙ    0.000000e+00 ( 0.000000e+00 +/- 0.000000e+00) [K]
Molecule-molecule
    Van der Waals/kʙ       -2.403764e+01 (-2.033831e+02 +/- 1.086681e+02) [K]
    Van der Waals (Tail)/kʙ-3.865914e+00 (-3.240986e+00 +/- 1.567203e+00) [K]
    Coulombic Real/kʙ      -4.808245e+00 (-7.600658e+01 +/- 3.568498e+01) [K]
    Coulombic Fourier/kʙ   -1.590212e+01 (-6.568350e+00 +/- 3.273299e+00) [K]
    Molecule Intra/kʙ       0.000000e+00 ( 0.000000e+00 +/- 0.000000e+00) [K]


Energy statistics             |  Energy [K]   | Recomputed [K]|  Drift [K]    |
===============================================================================
Total potential energy/kʙ     | -5.506837e+00 | -4.649253e+00 | -8.575838e-01 |
    external field VDW/kʙ     |  0.000000e+00 |  0.000000e+00 |  0.000000e+00 |
    external field Real/kʙ    |  0.000000e+00 |  0.000000e+00 |  0.000000e+00 |
    framework-molecule VDW/kʙ |  0.000000e+00 |  0.000000e+00 |  0.000000e+00 |
    framework-molecule Real/kʙ|  0.000000e+00 |  0.000000e+00 |  0.000000e+00 |
    molecule-molecule VDW/kʙ  | -7.081263e+00 | -6.271502e+00 | -8.097611e-01 |
    molecule-molecule Real/kʙ |  4.418758e-02 |  9.201034e-02 | -4.782276e-02 |
    Van der Waals (Tail)/kʙ   | -7.650000e-01 | -7.650000e-01 |  1.335292e-15 |
    Ewald Fourier/kʙ          |  2.375178e+02 |  2.375178e+02 | -5.127522e-13 |
    Ewald self/kʙ             | -7.346713e+04 | -7.346713e+04 |  0.000000e+00 |
    Ewald exclusion/kʙ        |  7.323191e+04 |  7.323191e+04 | -5.250583e-11 |
    intra VDW/kʙ              |  0.000000e+00 |  0.000000e+00 |  0.000000e+00 |
    intra Coulombic/kʙ        |  0.000000e+00 |  0.000000e+00 |  0.000000e+00 |
    polarization/kʙ           |  0.000000e+00 |  0.000000e+00 |  0.000000e+00 |
    dU/dlambda VDW/kʙ         |  0.000000e+00 |  0.000000e+00 |  0.000000e+00 |
    dU/dlambda Real/kʙ        |  0.000000e+00 |  0.000000e+00 |  0.000000e+00 |
    dU/dlambda Ewald/kʙ       |  0.000000e+00 |  0.000000e+00 |  0.000000e+00 |
-------------------------------------------------------------------------------


Monte-Carlo moves statistics
===============================================================================

    Gibbs volume         all:                2973
    Gibbs volume         total:              5872
    Gibbs volume         constructed:        5872
    Gibbs volume         accepted:           2985
    Gibbs volume         fraction:       0.508345
    Gibbs volume         max-change:     0.033929

Component 0 [CO2]
    Reinsertion (CBMC)   all:              149365
    Reinsertion (CBMC)   total:            149213
    Reinsertion (CBMC)   constructed:      149213
    Reinsertion (CBMC)   accepted:         130042
    Reinsertion (CBMC)   fraction:       0.871519
    Reinsertion (CBMC)   max-change:     0.000000

    Gibbs swap (CBMC)    all:              299253
    Gibbs swap (CBMC)    total:            597357
    Gibbs swap (CBMC)    constructed:      521962
    Gibbs swap (CBMC)    accepted:           9970
    Gibbs swap (CBMC)    fraction:       0.016690
    Gibbs swap (CBMC)    max-change:     0.000000

    Translation          all:              148647
    Translation          total:             49531      49651      49268
    Translation          constructed:       49507      49633      49252
    Translation          accepted:          46809      46996      46550
    Translation          fraction:       0.945045   0.946527   0.944832
    Translation          max-change:     1.500000   1.500000   1.500000

    Rotation             all:              149492
    Rotation             total:             50057      49557      49716
    Rotation             constructed:       50054      49547      49711
    Rotation             accepted:          47274      46719      46762
    Rotation             fraction:       0.944403   0.942733   0.940583
    Rotation             max-change:     1.500000   1.500000   1.500000



Production run counting of the MC moves summed over systems and components
===============================================================================

Reinsertion (CBMC)                   299348 (19.9565 [%])
Gibbs volume                           5872 (0.3915 [%])
Gibbs swap (CBMC)                    597679 (39.8453 [%])
Translation                          297700 (19.8467 [%])
Rotation                             299401 (19.9601 [%])

Production count MC-steps:          1500000 [-]
               All summed:          1500000 [-]
               difference:                0 [-]


Production run CPU timings of the MC moves
===============================================================================

Component 0 CO2

Rotation                              6.243783 [s]
    Ewald                             5.311237 [s]
    ExternalField-Molecule            0.007889 [s]
    Framework-Molecule                0.007984 [s]
    Molecule-Molecule                 0.302162 [s]
    Overhead                          0.614511 [s]

Reinsertion (CBMC)                   10.758837 [s]
    Ewald                             5.325915 [s]
    NonEwald                          4.906140 [s]
    Overhead                          0.526782 [s]

Translation                           6.196952 [s]
    Ewald                             5.272429 [s]
    ExternalField-Molecule            0.007851 [s]
    Framework-Molecule                0.012006 [s]
    Molecule-Molecule                 0.295140 [s]
    Overhead                          0.609526 [s]



Gibbs swap (CBMC)                   188.011692 [s]
    Ewald                            20.660546 [s]
    NonEwald                        165.283247 [s]
    Tail                              1.620955 [s]

Gibbs volume                         27.820072 [s]
    Ewald                             7.545402 [s]
    NonEwald                         19.167007 [s]
    Tail                              0.962239 [s]

Property sampling                     0.300957 [s]
Energy/pressure sampling:             0.164358 [s]


Production run CPU timings of the MC moves summed over systems and components
===============================================================================


Translation                          28.982788 [s]
    Ewald                            12.720771 [s]
    ExternalField-Molecule            0.015659 [s]
    Framework-Molecule                0.024116 [s]
    Molecule-Molecule                15.089189 [s]
    Overhead                          1.133053 [s]

Rotation                             29.150856 [s]
    Ewald                            12.797196 [s]
    ExternalField-Molecule            0.015459 [s]
    Framework-Molecule                0.016056 [s]
    Molecule-Molecule                15.129746 [s]
    Overhead                          1.192399 [s]

Reinsertion (CBMC)                  106.492232 [s]
    Ewald                            11.084648 [s]
    NonEwald                         94.768851 [s]
    Overhead                          0.638733 [s]

Gibbs volume                         54.979556 [s]
    Ewald                            14.919856 [s]
    NonEwald                         37.860295 [s]
    Tail                              1.910566 [s]
    Overhead                          0.288839 [s]

Gibbs swap (CBMC)                   315.783616 [s]
    Ewald                            36.145714 [s]
    NonEwald                        276.272757 [s]
    Tail                              2.551652 [s]
    Overhead                          0.813493 [s]

Property sampling:                    0.640958 [s]
Energy/pressure sampling:            11.972620 [s]

Production simulation time:         549.068800 [s]
                All summed:         548.002626 [s]
                  Overhead:           1.066174 [s]


Initalization simulation time:      172.618727 [s]
Equilibration simulation time:        0.000000 [s]
Production simulation time:         549.068800 [s]
Total simulation time:              721.687527 [s]


Energy averages and statistics:
===============================================================================

Framework-molecule energy:
-------------------------------------------------------------------------------



Framework-molecule energy contributions per energy type:
-------------------------------------------------------------------------------



Inter-molecular energy:
-------------------------------------------------------------------------------

    Inter-molecular energy/kʙ 0-0 [CO2-CO2]:
    ---------------------------------------------------------------------------
        Block[  0] -1.014640e+02
        Block[  1] -3.153152e+02
        Block[  2] -4.092052e+02
        Block[  3] -3.199894e+02
        Block[  4] -2.811567e+02
        -----------------------------------------------------------------------
        Average  -2.854261e+02 +/-  1.405511e+02 [K]



Inter-molecular energy contributions per energy type:
-------------------------------------------------------------------------------

    Van der Waals energy/kʙ 0-0 [CO2-CO2]:
    ---------------------------------------------------------------------------
        Block[  0] -6.914604e+01
        Block[  1] -2.232671e+02
        Block[  2] -3.135086e+02
        Block[  3] -2.122886e+02
        Block[  4] -1.854752e+02
        -----------------------------------------------------------------------
        Average  -2.007371e+02 +/-  1.091282e+02 [K]

    VDW Tail-Correction energy/kʙ 0-0 [CO2-CO2]:
    ---------------------------------------------------------------------------
        Block[  0] -1.455990e+00
        Block[  1] -3.736834e+00
        Block[  2] -4.925432e+00
        Block[  3] -3.125868e+00
        Block[  4] -2.903309e+00
        -----------------------------------------------------------------------
        Average  -3.229486e+00 +/-  1.569858e+00 [K]

    Coulomb Real energy/kʙ 0-0 [CO2-CO2]:
    ---------------------------------------------------------------------------
        Block[  0] -2.698674e+01
        Block[  1] -7.773111e+01
        Block[  2] -8.391572e+01
        Block[  3] -9.769794e+01
        Block[  4] -8.844412e+01
        -----------------------------------------------------------------------
        Average  -7.495512e+01 +/-  3.449482e+01 [K]

    Coulomb Fourier energy/kʙ 0-0 [CO2-CO2]:
    ---------------------------------------------------------------------------
        Block[  0] -3.875215e+00
        Block[  1] -1.058010e+01
        Block[  2] -6.855399e+00
        Block[  3] -6.876966e+00
        Block[  4] -4.334120e+00
        -----------------------------------------------------------------------
        Average  -6.504360e+00 +/-  3.313575e+00 [K]


Total energy/kʙ
-------------------------------------------------------------------------------
    Block[  0] -1.014640e+02
    Block[  1] -3.153152e+02
    Block[  2] -4.092052e+02
    Block[  3] -3.199894e+02
    Block[  4] -2.811567e+02
    ---------------------------------------------------------------------------
    Average  -2.854261e+02 +/-  1.405511e+02 [K]

Pressure averages and statistics:
===============================================================================

Average pressure tensor: 
-------------------------------------------------------------------------------
 5.6841e+00 -2.2011e-01  7.1873e-02 +/- 1.2548e+00 3.7897e-01 3.1388e-01 [bar]
-2.2011e-01  5.7467e+00 -7.0127e-02 +/- 3.7897e-01 1.8206e+00 2.7094e-01 [bar]
 7.1873e-02 -7.0127e-02  5.5266e+00 +/- 3.1388e-01 2.7094e-01 1.3880e+00 [bar]

    Block[  0]  4.024107e+05
    Block[  1]  6.307059e+05
    Block[  2]  7.692869e+05
    Block[  3]  5.918595e+05
    Block[  4]  5.727964e+05
    ---------------------------------------------------------------------------
    Ideal gas pressure   5.934119e+05 +/-  9.835755e-03 [Pa]
                         5.934119e+00 +/-  1.633267e+00 [bar]


    Block[  0] -1.222151e+04
    Block[  1] -4.342537e+04
    Block[  2] -4.534217e+04
    Block[  3] -3.879445e+04
    Block[  4] -1.029414e+03
    ---------------------------------------------------------------------------
    Excess pressure  -2.816258e+04 +/-  2.507217e+04 [Pa]
                     -2.816258e-01 +/-  2.507217e-01 [bar]


    Block[  0]  3.901892e+05
    Block[  1]  5.872805e+05
    Block[  2]  7.239447e+05
    Block[  3]  5.530651e+05
    Block[  4]  5.717670e+05
    ---------------------------------------------------------------------------
    Pressure average   5.652493e+05 +/-  1.475551e+05 [Pa]
                       5.652493e+00 +/-  1.475551e+00 [bar]


Enthalpy of adsorption
===============================================================================

Component 0 [CO2]
-------------------------------------------------------------------------------
    Block[  0] -2.652586e+02
    Block[  1] -2.855267e+02
    Block[  2] -3.198939e+02
    Block[  3] -2.903793e+02
    Block[  4] -2.876070e+02
    ---------------------------------------------------------------------------
    Enthalpy of adsorption: -2.897331e+02 +/-  2.429043e+01 [K]
                            -2.408976e+00 +/-  2.019619e-01 [kJ/mol]
    Warning: need to subtract the ideal-gas energy.


Densities
===============================================================================

Component 0 (CO2)
    Block[  0] 5.072500000000001
    Block[  1] 8.018333333333334
    Block[  2] 9.831666666666667
    Block[  3] 7.541666666666667
    Block[  4] 7.309166666666667
    -----------------------------------------------------------------------
    Density average   7.554667e+00 +/-  2.116079e+00 [molecules]
    Density average   1.953664e-04 +/-  5.377132e-05 [molec/A^3]
    Density average   1.427380e+01 +/-  3.928625e+00 [kg.m⁻³]

