Compiler and run-time data
===============================================================================
RASPA 3.0.4

Random seed: 1539548469

Compiled as a 64-bits application
Compiler: gcc Ubuntu Clang 18.1.3 (1ubuntu1)
Compile Date = Mar 15 2025, Compile Time = 19:39:45

2025-06-02 13:11:29.149927
Simulation started on Mon, Jun 02
The start time was 13:11:00

Hostname:    c061
OS type:     Linux on x86_64
OS release:  6.8.0-58-generic
OS version:  #60-Ubuntu SMP PREEMPT_DYNAMIC Fri Mar 14 18:29:48 UTC 2025


Mutual consistent basic set of units:
===============================================================================

Unit of temperature: 1 [K]
Unit of length:      1e-10 [m]
Unit of time:        1e-12 [s]
Unit of mass:        1.6605402e-27 [kg]
Unit of charge:      1.60217733e-19 [C/particle]


Boltzmann constant (internal units):          0.8314464919307584 [-]
represents conversion from energy (internal units) to temperature (in Kelvin)

Derived units and their conversion factors:
===============================================================================

Unit of energy:                           1.6605402000000002e-23 [J]
Unit of energy:                           10.000008872307538 [J.mol⁻¹]
Unit of velocity:                         100 [m.s⁻¹]
Unit of force:                            1.6605402000000002e-13 [N]
Unit of diffusion:                        1.0000000000000002e-08 [m².s⁻¹]
Unit of acceleration:                     1.0000000000000002e-08 [m².s⁻¹]
Unit of torque:                           1.6605402000000002e-23 [N.m]
Unit of pressure:                         16605402 [Pa]
Unit of volume:                           1e-30 [m³]
Unit of density:                          1660.5402 [kg.m⁻³]
Unit of dynamic viscosity:                1.6605401999999997e-05 [N.s.m⁻²]
Unit of enthalpy:                         1.6605402000000002e-23 [J]
Unit of polarizability:                   1.5458657349975198e-35 [-]
Unit of Coulomb potential:                167101.08000665612 [K]
Unit of dielectric constant:              1.5458657349975193e-05 [s².C².kg⁻¹.m⁻³]
Unit of dipole moment:                    1.60217733e-29 [C.m]
Unit of Debye:                            4.803206799099162 [C.m]
Unit of electric potential:               0.00010364272224473431 [V]
Unit of electric field:                   1036427.222447343 [V.m⁻¹]
Unit of isothermal compressibility:       6.02213665167516e-08 [Pa⁻¹]
Unit of heat capacity:                    10.000008872307538 [J.mol⁻¹.K⁻¹]
Unit of volumetric expansion coefficient: 1 [K⁻¹]


Internal conversion factors:
===============================================================================

Energy (internal units) to Kelvin:      1.202724284692786 [-]
Kelvin to energy (internal units):      0.8314457542157567 [-]


System definitions
===============================================================================

Temperature:          250 [K]
Beta:                 0.0048108928702210625 [-]
Pressure:             1e+07 [Pa]
Helium void fraction: 1 [-]

Box:      30.00000   0.00000   0.00000
           0.00000  30.00000   0.00000
           0.00000   0.00000  30.00000
Lengths:  30.00000  30.00000  30.00000
Angles:   90.00000  90.00000  90.00000
Rectangular boundary conditions



Property measurement settings
===============================================================================




Pseudo-atoms
===============================================================================

  0 - C_co2    framework-atom: false
  1 - O_co2    framework-atom: false

  0 - C_co2    mass: 12.00000, charge:  0.70000
  1 - O_co2    mass: 15.99940, charge: -0.35000

  0 - C_co2    polarizability:  0.00000
  1 - O_co2    polarizability:  0.00000

  0 - J. J. Potoff et al., AIChE J. 2001, 47, 1676–1682.
  1 - J. J. Potoff et al., AIChE J. 2001, 47, 1676–1682.

Force field status
===============================================================================

Cutoff Framework-Molecule VDW:  11.00000 [Å]
Cutoff Molecule-Molecule VDW:   11.00000 [Å]
Cutoff Coulomb:                 11.00000 [Å]

Overlap-criteria VDW:           1.000000e+05 [K]

C_co2    - C_co2    Lennard-Jones p₀/kʙ:  27.00000 [K], p₁:  2.80000 [Å]
                                  shift:   0.00000 [K], tailcorrections: true
C_co2    - O_co2    Lennard-Jones p₀/kʙ:  46.18441 [K], p₁:  2.92500 [Å]
                                  shift:   0.00000 [K], tailcorrections: true
O_co2    - O_co2    Lennard-Jones p₀/kʙ:  79.00000 [K], p₁:  3.05000 [Å]
                                  shift:   0.00000 [K], tailcorrections: true

Ewald precision: 1e-06
Ewald alpha: 0.2903408740940883
Ewald k-vectors: 9 9 9


Component definitions
===============================================================================

Component 0 [CO2]

    Type: Adsorbate

    Critical temperature:  304.1282 [K]
    Critical pressure:     7377300 [Pa]
    Acentric factor:       0.22394 [-]

    Mol-fraction:                 1 [-]
    Swappable:                   false

    Mass:                         43.9988 [-]
    Bulk fluid density:           0 [-]
    Compressibility:              0 [-]
    Excess molecules:             0 [-]

    Number Of Atoms:    3
    CBMC starting bead: 0
      0: O_co2  position  0.00000 -0.00000  1.16000, charge -0.35000
      1: C_co2  position  0.00000 -0.00000  0.00000, charge  0.70000
      2: O_co2  position  0.00000 -0.00000 -1.16000, charge -0.35000
    Diagonalized inertia-vector:      43.05758528 43.05758528 0.00000000
    Translational degrees of freedom: 3
    Rotational degrees of freedom:    2
    Shape of the molecule is: 'Linear'
    Net-charge:        0.00000000 [e]

    Move probabilities:
    Translation:                   0.331126 [-]
    Random translation:            0.000000 [-]
    Rotation:                      0.331126 [-]
    Random rotation:               0.000000 [-]
    Volume change:                 0.006623 [-]
    Reinsertion (CBMC):            0.331126 [-]
    Identity change (CBMC):        0.000000 [-]
    Swap:                          0.000000 [-]
    Swap (CBMC):                   0.000000 [-]
    Swap (CFCMC):                  0.000000 [-]
    Swap (CB/CFCMC):               0.000000 [-]
    Gibbs volume:                  0.000000 [-]
    Gibbs swap (CBMC):             0.000000 [-]
    Gibbs swap (CFCMC):            0.000000 [-]
    Widom:                         0.000000 [-]
    Widom (CFCMC):                 0.000000 [-]
    Widom (CB/CFCMC):              0.000000 [-]
    Parallel tempering:            0.000000 [-]
    Hybrid MC:                     0.000000 [-]

    number of blocking-pockets: 0

    number of bonds: 0





Number of pseudo-atoms
===============================================================================

Component   0 (CO2)
-------------------------------------------------------------------------------
    index   0 (C_co2): 250 atoms
    index   1 (O_co2): 500 atoms

Total number of pseudo-atoms:
-------------------------------------------------------------------------------
    index   0 (C_co2): 250 atoms
    index   1 (O_co2): 500 atoms




Energy status Recomputed from scratch
===============================================================================

Total potential energy/kʙ       -1.401057e+05 [K]
    external field VDW/kʙ        0.000000e+00 [K]
    external field Real/kʙ       0.000000e+00 [K]
    framework-molecule VDW/kʙ    0.000000e+00 [K]
    framework-molecule Real/kʙ   0.000000e+00 [K]
    molecule-molecule VDW/kʙ    -1.080488e+05 [K]
    molecule-molecule Real/kʙ   -2.354709e+04 [K]
    Van der Waals (Tail)/kʙ     -5.580763e+03 [K]
    Ewald Fourier/kʙ             1.976235e+04 [K]
    Ewald self/kʙ               -5.029674e+06 [K]
    Ewald exclusion/kʙ           5.006983e+06 [K]
    intra VDW/kʙ                 0.000000e+00 [K]
    intra Coulombic/kʙ           0.000000e+00 [K]
    polarization/kʙ              0.000000e+00 [K]
    dU/dlambda VDW/kʙ            0.000000e+00 [K]
    dU/dlambda Real/kʙ           0.000000e+00 [K]
    dU/dlambda Ewald/kʙ          0.000000e+00 [K]





Initialization: Current cycle: 0 out of 1000
===============================================================================

Box:      30.42521   0.00000   0.00000
           0.00000  30.42521   0.00000
           0.00000   0.00000  30.42521
Lengths:  30.42521  30.42521  30.42521
Angles:   90.00000  90.00000  90.00000
Rectangular boundary conditions

net charge:   0.00000000

component   0 (CO2) lambda:  0 occupancy:  1 (1.000000)
    net charge:   0.00000000 [e]

Amount of molecules per component :
-------------------------------------------------------------------------------
Component 0 (CO2)
    molecules:         2.500000e+02 molecules
    number density:    8.876447e-03 molec/A^3
    density:           6.485284e+02 kg/m^3

Total potential energy/kʙ       -1.675124e+05 [K]
-------------------------------------------------------------------------------
    external field VDW/kʙ        0.000000e+00 [K]
    external field Real/kʙ       0.000000e+00 [K]
    framework-molecule VDW/kʙ    0.000000e+00 [K]
    framework-molecule Real/kʙ   0.000000e+00 [K]
    molecule-molecule VDW/kʙ    -1.336533e+05 [K]
    molecule-molecule Real/kʙ   -2.424391e+04 [K]
    Van der Waals (Tail)/kʙ     -5.350033e+03 [K]
    Ewald Fourier/kʙ             1.842621e+04 [K]
    Ewald self/kʙ               -5.029674e+06 [K]
    Ewald exclusion/kʙ           5.006983e+06 [K]
    intra VDW/kʙ                 0.000000e+00 [K]
    intra Coulombic/kʙ           0.000000e+00 [K]
    polarization/kʙ              0.000000e+00 [K]
    dU/dlambda VDW/kʙ            0.000000e+00 [K]
    dU/dlambda Real/kʙ           0.000000e+00 [K]
    dU/dlambda Ewald/kʙ          0.000000e+00 [K]


Initialization: Current cycle: 100 out of 1000
===============================================================================

Box:      29.49943   0.00000   0.00000
           0.00000  29.49943   0.00000
           0.00000   0.00000  29.49943
Lengths:  29.49943  29.49943  29.49943
Angles:   90.00000  90.00000  90.00000
Rectangular boundary conditions

net charge:   0.00000000

component   0 (CO2) lambda:  0 occupancy:  1 (1.000000)
    net charge:   0.00000000 [e]

Amount of molecules per component :
-------------------------------------------------------------------------------
Component 0 (CO2)
    molecules:         2.500000e+02 molecules
    number density:    9.738656e-03 molec/A^3
    density:           7.115229e+02 kg/m^3

Total potential energy/kʙ       -2.683432e+05 [K]
-------------------------------------------------------------------------------
    external field VDW/kʙ        0.000000e+00 [K]
    external field Real/kʙ       0.000000e+00 [K]
    framework-molecule VDW/kʙ    0.000000e+00 [K]
    framework-molecule Real/kʙ   0.000000e+00 [K]
    molecule-molecule VDW/kʙ    -2.014623e+05 [K]
    molecule-molecule Real/kʙ   -5.252296e+04 [K]
    Van der Waals (Tail)/kʙ     -5.869706e+03 [K]
    Ewald Fourier/kʙ             1.420316e+04 [K]
    Ewald self/kʙ               -5.029674e+06 [K]
    Ewald exclusion/kʙ           5.006983e+06 [K]
    intra VDW/kʙ                 0.000000e+00 [K]
    intra Coulombic/kʙ           0.000000e+00 [K]
    polarization/kʙ              0.000000e+00 [K]
    dU/dlambda VDW/kʙ            0.000000e+00 [K]
    dU/dlambda Real/kʙ           0.000000e+00 [K]
    dU/dlambda Ewald/kʙ          0.000000e+00 [K]


Initialization: Current cycle: 200 out of 1000
===============================================================================

Box:      28.13378   0.00000   0.00000
           0.00000  28.13378   0.00000
           0.00000   0.00000  28.13378
Lengths:  28.13378  28.13378  28.13378
Angles:   90.00000  90.00000  90.00000
Rectangular boundary conditions

net charge:   0.00000000

component   0 (CO2) lambda:  0 occupancy:  1 (1.000000)
    net charge:   0.00000000 [e]

Amount of molecules per component :
-------------------------------------------------------------------------------
Component 0 (CO2)
    molecules:         2.500000e+02 molecules
    number density:    1.122680e-02 molec/A^3
    density:           8.202492e+02 kg/m^3

Total potential energy/kʙ       -2.999237e+05 [K]
-------------------------------------------------------------------------------
    external field VDW/kʙ        0.000000e+00 [K]
    external field Real/kʙ       0.000000e+00 [K]
    framework-molecule VDW/kʙ    0.000000e+00 [K]
    framework-molecule Real/kʙ   0.000000e+00 [K]
    molecule-molecule VDW/kʙ    -2.187244e+05 [K]
    molecule-molecule Real/kʙ   -6.429816e+04 [K]
    Van der Waals (Tail)/kʙ     -6.766643e+03 [K]
    Ewald Fourier/kʙ             1.255682e+04 [K]
    Ewald self/kʙ               -5.029674e+06 [K]
    Ewald exclusion/kʙ           5.006983e+06 [K]
    intra VDW/kʙ                 0.000000e+00 [K]
    intra Coulombic/kʙ           0.000000e+00 [K]
    polarization/kʙ              0.000000e+00 [K]
    dU/dlambda VDW/kʙ            0.000000e+00 [K]
    dU/dlambda Real/kʙ           0.000000e+00 [K]
    dU/dlambda Ewald/kʙ          0.000000e+00 [K]


Initialization: Current cycle: 300 out of 1000
===============================================================================

Box:      27.56911   0.00000   0.00000
           0.00000  27.56911   0.00000
           0.00000   0.00000  27.56911
Lengths:  27.56911  27.56911  27.56911
Angles:   90.00000  90.00000  90.00000
Rectangular boundary conditions

net charge:   0.00000000

component   0 (CO2) lambda:  0 occupancy:  1 (1.000000)
    net charge:   0.00000000 [e]

Amount of molecules per component :
-------------------------------------------------------------------------------
Component 0 (CO2)
    molecules:         2.500000e+02 molecules
    number density:    1.193086e-02 molec/A^3
    density:           8.716890e+02 kg/m^3

Total potential energy/kʙ       -3.023166e+05 [K]
-------------------------------------------------------------------------------
    external field VDW/kʙ        0.000000e+00 [K]
    external field Real/kʙ       0.000000e+00 [K]
    framework-molecule VDW/kʙ    0.000000e+00 [K]
    framework-molecule Real/kʙ   0.000000e+00 [K]
    molecule-molecule VDW/kʙ    -2.232320e+05 [K]
    molecule-molecule Real/kʙ   -6.179996e+04 [K]
    Van der Waals (Tail)/kʙ     -7.190996e+03 [K]
    Ewald Fourier/kʙ             1.259765e+04 [K]
    Ewald self/kʙ               -5.029674e+06 [K]
    Ewald exclusion/kʙ           5.006983e+06 [K]
    intra VDW/kʙ                 0.000000e+00 [K]
    intra Coulombic/kʙ           0.000000e+00 [K]
    polarization/kʙ              0.000000e+00 [K]
    dU/dlambda VDW/kʙ            0.000000e+00 [K]
    dU/dlambda Real/kʙ           0.000000e+00 [K]
    dU/dlambda Ewald/kʙ          0.000000e+00 [K]


Initialization: Current cycle: 400 out of 1000
===============================================================================

Box:      26.75110   0.00000   0.00000
           0.00000  26.75110   0.00000
           0.00000   0.00000  26.75110
Lengths:  26.75110  26.75110  26.75110
Angles:   90.00000  90.00000  90.00000
Rectangular boundary conditions

net charge:   0.00000000

component   0 (CO2) lambda:  0 occupancy:  1 (1.000000)
    net charge:   0.00000000 [e]

Amount of molecules per component :
-------------------------------------------------------------------------------
Component 0 (CO2)
    molecules:         2.500000e+02 molecules
    number density:    1.305916e-02 molec/A^3
    density:           9.541246e+02 kg/m^3

Total potential energy/kʙ       -3.418389e+05 [K]
-------------------------------------------------------------------------------
    external field VDW/kʙ        0.000000e+00 [K]
    external field Real/kʙ       0.000000e+00 [K]
    framework-molecule VDW/kʙ    0.000000e+00 [K]
    framework-molecule Real/kʙ   0.000000e+00 [K]
    molecule-molecule VDW/kʙ    -2.432250e+05 [K]
    molecule-molecule Real/kʙ   -7.888176e+04 [K]
    Van der Waals (Tail)/kʙ     -7.871048e+03 [K]
    Ewald Fourier/kʙ             1.083031e+04 [K]
    Ewald self/kʙ               -5.029674e+06 [K]
    Ewald exclusion/kʙ           5.006983e+06 [K]
    intra VDW/kʙ                 0.000000e+00 [K]
    intra Coulombic/kʙ           0.000000e+00 [K]
    polarization/kʙ              0.000000e+00 [K]
    dU/dlambda VDW/kʙ            0.000000e+00 [K]
    dU/dlambda Real/kʙ           0.000000e+00 [K]
    dU/dlambda Ewald/kʙ          0.000000e+00 [K]


Initialization: Current cycle: 500 out of 1000
===============================================================================

Box:      25.96563   0.00000   0.00000
           0.00000  25.96563   0.00000
           0.00000   0.00000  25.96563
Lengths:  25.96563  25.96563  25.96563
Angles:   90.00000  90.00000  90.00000
Rectangular boundary conditions

net charge:   0.00000000

component   0 (CO2) lambda:  0 occupancy:  1 (1.000000)
    net charge:   0.00000000 [e]

Amount of molecules per component :
-------------------------------------------------------------------------------
Component 0 (CO2)
    molecules:         2.500000e+02 molecules
    number density:    1.428050e-02 molec/A^3
    density:           1.043357e+03 kg/m^3

Total potential energy/kʙ       -3.687761e+05 [K]
-------------------------------------------------------------------------------
    external field VDW/kʙ        0.000000e+00 [K]
    external field Real/kʙ       0.000000e+00 [K]
    framework-molecule VDW/kʙ    0.000000e+00 [K]
    framework-molecule Real/kʙ   0.000000e+00 [K]
    molecule-molecule VDW/kʙ    -2.673169e+05 [K]
    molecule-molecule Real/kʙ   -8.061221e+04 [K]
    Van der Waals (Tail)/kʙ     -8.607174e+03 [K]
    Ewald Fourier/kʙ             1.045162e+04 [K]
    Ewald self/kʙ               -5.029674e+06 [K]
    Ewald exclusion/kʙ           5.006983e+06 [K]
    intra VDW/kʙ                 0.000000e+00 [K]
    intra Coulombic/kʙ           0.000000e+00 [K]
    polarization/kʙ              0.000000e+00 [K]
    dU/dlambda VDW/kʙ            0.000000e+00 [K]
    dU/dlambda Real/kʙ           0.000000e+00 [K]
    dU/dlambda Ewald/kʙ          0.000000e+00 [K]


Initialization: Current cycle: 600 out of 1000
===============================================================================

Box:      25.84850   0.00000   0.00000
           0.00000  25.84850   0.00000
           0.00000   0.00000  25.84850
Lengths:  25.84850  25.84850  25.84850
Angles:   90.00000  90.00000  90.00000
Rectangular boundary conditions

net charge:   0.00000000

component   0 (CO2) lambda:  0 occupancy:  1 (1.000000)
    net charge:   0.00000000 [e]

Amount of molecules per component :
-------------------------------------------------------------------------------
Component 0 (CO2)
    molecules:         2.500000e+02 molecules
    number density:    1.447551e-02 molec/A^3
    density:           1.057606e+03 kg/m^3

Total potential energy/kʙ       -3.771724e+05 [K]
-------------------------------------------------------------------------------
    external field VDW/kʙ        0.000000e+00 [K]
    external field Real/kʙ       0.000000e+00 [K]
    framework-molecule VDW/kʙ    0.000000e+00 [K]
    framework-molecule Real/kʙ   0.000000e+00 [K]
    molecule-molecule VDW/kʙ    -2.747875e+05 [K]
    molecule-molecule Real/kʙ   -8.175385e+04 [K]
    Van der Waals (Tail)/kʙ     -8.724716e+03 [K]
    Ewald Fourier/kʙ             1.078504e+04 [K]
    Ewald self/kʙ               -5.029674e+06 [K]
    Ewald exclusion/kʙ           5.006983e+06 [K]
    intra VDW/kʙ                 0.000000e+00 [K]
    intra Coulombic/kʙ           0.000000e+00 [K]
    polarization/kʙ              0.000000e+00 [K]
    dU/dlambda VDW/kʙ            0.000000e+00 [K]
    dU/dlambda Real/kʙ           0.000000e+00 [K]
    dU/dlambda Ewald/kʙ          0.000000e+00 [K]


Initialization: Current cycle: 700 out of 1000
===============================================================================

Box:      26.12670   0.00000   0.00000
           0.00000  26.12670   0.00000
           0.00000   0.00000  26.12670
Lengths:  26.12670  26.12670  26.12670
Angles:   90.00000  90.00000  90.00000
Rectangular boundary conditions

net charge:   0.00000000

component   0 (CO2) lambda:  0 occupancy:  1 (1.000000)
    net charge:   0.00000000 [e]

Amount of molecules per component :
-------------------------------------------------------------------------------
Component 0 (CO2)
    molecules:         2.500000e+02 molecules
    number density:    1.401801e-02 molec/A^3
    density:           1.024180e+03 kg/m^3

Total potential energy/kʙ       -3.713594e+05 [K]
-------------------------------------------------------------------------------
    external field VDW/kʙ        0.000000e+00 [K]
    external field Real/kʙ       0.000000e+00 [K]
    framework-molecule VDW/kʙ    0.000000e+00 [K]
    framework-molecule Real/kʙ   0.000000e+00 [K]
    molecule-molecule VDW/kʙ    -2.653891e+05 [K]
    molecule-molecule Real/kʙ   -8.419287e+04 [K]
    Van der Waals (Tail)/kʙ     -8.448970e+03 [K]
    Ewald Fourier/kʙ             9.362887e+03 [K]
    Ewald self/kʙ               -5.029674e+06 [K]
    Ewald exclusion/kʙ           5.006983e+06 [K]
    intra VDW/kʙ                 0.000000e+00 [K]
    intra Coulombic/kʙ           0.000000e+00 [K]
    polarization/kʙ              0.000000e+00 [K]
    dU/dlambda VDW/kʙ            0.000000e+00 [K]
    dU/dlambda Real/kʙ           0.000000e+00 [K]
    dU/dlambda Ewald/kʙ          0.000000e+00 [K]


Initialization: Current cycle: 800 out of 1000
===============================================================================

Box:      26.01614   0.00000   0.00000
           0.00000  26.01614   0.00000
           0.00000   0.00000  26.01614
Lengths:  26.01614  26.01614  26.01614
Angles:   90.00000  90.00000  90.00000
Rectangular boundary conditions

net charge:   0.00000000

component   0 (CO2) lambda:  0 occupancy:  1 (1.000000)
    net charge:   0.00000000 [e]

Amount of molecules per component :
-------------------------------------------------------------------------------
Component 0 (CO2)
    molecules:         2.500000e+02 molecules
    number density:    1.419748e-02 molec/A^3
    density:           1.037293e+03 kg/m^3

Total potential energy/kʙ       -3.720256e+05 [K]
-------------------------------------------------------------------------------
    external field VDW/kʙ        0.000000e+00 [K]
    external field Real/kʙ       0.000000e+00 [K]
    framework-molecule VDW/kʙ    0.000000e+00 [K]
    framework-molecule Real/kʙ   0.000000e+00 [K]
    molecule-molecule VDW/kʙ    -2.652655e+05 [K]
    molecule-molecule Real/kʙ   -8.482266e+04 [K]
    Van der Waals (Tail)/kʙ     -8.557141e+03 [K]
    Ewald Fourier/kʙ             9.311127e+03 [K]
    Ewald self/kʙ               -5.029674e+06 [K]
    Ewald exclusion/kʙ           5.006983e+06 [K]
    intra VDW/kʙ                 0.000000e+00 [K]
    intra Coulombic/kʙ           0.000000e+00 [K]
    polarization/kʙ              0.000000e+00 [K]
    dU/dlambda VDW/kʙ            0.000000e+00 [K]
    dU/dlambda Real/kʙ           0.000000e+00 [K]
    dU/dlambda Ewald/kʙ          0.000000e+00 [K]


Initialization: Current cycle: 900 out of 1000
===============================================================================

Box:      26.06199   0.00000   0.00000
           0.00000  26.06199   0.00000
           0.00000   0.00000  26.06199
Lengths:  26.06199  26.06199  26.06199
Angles:   90.00000  90.00000  90.00000
Rectangular boundary conditions

net charge:   0.00000000

component   0 (CO2) lambda:  0 occupancy:  1 (1.000000)
    net charge:   0.00000000 [e]

Amount of molecules per component :
-------------------------------------------------------------------------------
Component 0 (CO2)
    molecules:         2.500000e+02 molecules
    number density:    1.412269e-02 molec/A^3
    density:           1.031828e+03 kg/m^3

Total potential energy/kʙ       -3.715864e+05 [K]
-------------------------------------------------------------------------------
    external field VDW/kʙ        0.000000e+00 [K]
    external field Real/kʙ       0.000000e+00 [K]
    framework-molecule VDW/kʙ    0.000000e+00 [K]
    framework-molecule Real/kʙ   0.000000e+00 [K]
    molecule-molecule VDW/kʙ    -2.712647e+05 [K]
    molecule-molecule Real/kʙ   -7.985143e+04 [K]
    Van der Waals (Tail)/kʙ     -8.512061e+03 [K]
    Ewald Fourier/kʙ             1.073322e+04 [K]
    Ewald self/kʙ               -5.029674e+06 [K]
    Ewald exclusion/kʙ           5.006983e+06 [K]
    intra VDW/kʙ                 0.000000e+00 [K]
    intra Coulombic/kʙ           0.000000e+00 [K]
    polarization/kʙ              0.000000e+00 [K]
    dU/dlambda VDW/kʙ            0.000000e+00 [K]
    dU/dlambda Real/kʙ           0.000000e+00 [K]
    dU/dlambda Ewald/kʙ          0.000000e+00 [K]


Current cycle: 0 out of 5000
===============================================================================

Box:      26.04411   0.00000   0.00000  Average:  26.04411   0.00000   0.00000
           0.00000  26.04411   0.00000             0.00000  26.04411   0.00000
           0.00000   0.00000  26.04411             0.00000   0.00000  26.04411
Lengths:  26.04411  26.04411  26.04411  Average:  26.04411  26.04411  26.04411
Angles:   90.00000  90.00000  90.00000  Average:  90.00000  90.00000  90.00000
Rectangular boundary conditions

net charge:   0.00000000

component 0 (CO2) lambda:  0 occupancy:  1 (1.000000)
    net charge:   0.00000000 [e]

Amount of molecules per component :
-------------------------------------------------------------------------------
Component 0 (CO2)
    molecules:      2.500000e+02 molecules  (2.500000e+02 +/- 0.000000e+00)
    number density: 1.415180e-02 molec./A^3 (1.415180e-02 +/- 0.000000e+00)
    density:        1.033955e+03 kg/m^3     (1.033955e+03 +/- 0.000000e+00)

Average pressure tensor: 
-------------------------------------------------------------------------------
 4.8847e+02  0.0000e+00  0.0000e+00 +/- 0.0000e+00 0.0000e+00 0.0000e+00 [bar]
 0.0000e+00  4.8847e+02  0.0000e+00 +/- 0.0000e+00 0.0000e+00 0.0000e+00 [bar]
 0.0000e+00  0.0000e+00  4.8847e+02 +/- 0.0000e+00 0.0000e+00 0.0000e+00 [bar]
Ideal-gas pressure:   4.884672e+02 +/ 0.000000e+00 [bar]
Excess pressure:      0.000000e+00 +/ 0.000000e+00 [bar]
Pressure:             4.884672e+02 +/ 0.000000e+00 [bar]

Total potential energy/kʙ  -3.666517e+05 (-3.666517e+05 +/- 0.000000e+00) [K]
-------------------------------------------------------------------------------
ExternalField-molecule
    Van der Waals/kʙ        0.000000e+00 ( 0.000000e+00 +/- 0.000000e+00) [K]
Framework-molecule
    Van der Waals/kʙ        0.000000e+00 ( 0.000000e+00 +/- 0.000000e+00) [K]
    Van der Waals (Tail)/kʙ 0.000000e+00 ( 0.000000e+00 +/- 0.000000e+00) [K]
    Coulombic Real/kʙ       0.000000e+00 ( 0.000000e+00 +/- 0.000000e+00) [K]
    Coulombic Fourier/kʙ    0.000000e+00 ( 0.000000e+00 +/- 0.000000e+00) [K]
Molecule-molecule
    Van der Waals/kʙ       -2.664968e+05 (-2.664968e+05 +/- 0.000000e+00) [K]
    Van der Waals (Tail)/kʙ-8.529607e+03 (-8.529607e+03 +/- 0.000000e+00) [K]
    Coulombic Real/kʙ      -7.923315e+04 (-7.923315e+04 +/- 0.000000e+00) [K]
    Coulombic Fourier/kʙ   -1.239211e+04 (-1.239211e+04 +/- 0.000000e+00) [K]
    Molecule Intra/kʙ       0.000000e+00 ( 0.000000e+00 +/- 0.000000e+00) [K]

Current cycle: 100 out of 5000
===============================================================================

Box:      25.82105   0.00000   0.00000  Average:  25.85710   0.00000   0.00000
           0.00000  25.82105   0.00000             0.00000  25.85710   0.00000
           0.00000   0.00000  25.82105             0.00000   0.00000  25.85710
Lengths:  25.82105  25.82105  25.82105  Average:  25.85710  25.85710  25.85710
Angles:   90.00000  90.00000  90.00000  Average:  90.00000  90.00000  90.00000
Rectangular boundary conditions

net charge:   0.00000000

component 0 (CO2) lambda:  0 occupancy:  1 (1.000000)
    net charge:   0.00000000 [e]

Amount of molecules per component :
-------------------------------------------------------------------------------
Component 0 (CO2)
    molecules:      2.500000e+02 molecules  (2.500000e+02 +/- 0.000000e+00)
    number density: 1.452173e-02 molec./A^3 (1.446227e-02 +/- 0.000000e+00)
    density:        1.060982e+03 kg/m^3     (1.056639e+03 +/- 0.000000e+00)

Average pressure tensor: 
-------------------------------------------------------------------------------
 1.2504e+02  1.9262e+02 -1.0645e+02 +/- 0.0000e+00 0.0000e+00 0.0000e+00 [bar]
 1.9262e+02 -2.3212e+02 -3.9584e+00 +/- 0.0000e+00 0.0000e+00 0.0000e+00 [bar]
-1.0645e+02 -3.9584e+00  9.1465e+01 +/- 0.0000e+00 0.0000e+00 0.0000e+00 [bar]
Ideal-gas pressure:   4.991836e+02 +/ 0.000000e+00 [bar]
Excess pressure:     -5.043862e+02 +/ 0.000000e+00 [bar]
Pressure:            -5.202638e+00 +/ 0.000000e+00 [bar]

Total potential energy/kʙ  -3.776352e+05 (-3.757837e+05 +/- 0.000000e+00) [K]
-------------------------------------------------------------------------------
ExternalField-molecule
    Van der Waals/kʙ        0.000000e+00 ( 0.000000e+00 +/- 0.000000e+00) [K]
Framework-molecule
    Van der Waals/kʙ        0.000000e+00 ( 0.000000e+00 +/- 0.000000e+00) [K]
    Van der Waals (Tail)/kʙ 0.000000e+00 ( 0.000000e+00 +/- 0.000000e+00) [K]
    Coulombic Real/kʙ       0.000000e+00 ( 0.000000e+00 +/- 0.000000e+00) [K]
    Coulombic Fourier/kʙ    0.000000e+00 ( 0.000000e+00 +/- 0.000000e+00) [K]
Molecule-molecule
    Van der Waals/kʙ       -2.725573e+05 (-2.725171e+05 +/- 0.000000e+00) [K]
    Van der Waals (Tail)/kʙ-8.752571e+03 (-8.695871e+03 +/- 0.000000e+00) [K]
    Coulombic Real/kʙ      -8.358871e+04 (-8.223461e+04 +/- 0.000000e+00) [K]
    Coulombic Fourier/kʙ   -1.273663e+04 (-1.233607e+04 +/- 0.000000e+00) [K]
    Molecule Intra/kʙ       0.000000e+00 ( 0.000000e+00 +/- 0.000000e+00) [K]

Current cycle: 200 out of 5000
===============================================================================

Box:      25.95789   0.00000   0.00000  Average:  25.84722   0.00000   0.00000
           0.00000  25.95789   0.00000             0.00000  25.84722   0.00000
           0.00000   0.00000  25.95789             0.00000   0.00000  25.84722
Lengths:  25.95789  25.95789  25.95789  Average:  25.84722  25.84722  25.84722
Angles:   90.00000  90.00000  90.00000  Average:  90.00000  90.00000  90.00000
Rectangular boundary conditions

net charge:   0.00000000

component 0 (CO2) lambda:  0 occupancy:  1 (1.000000)
    net charge:   0.00000000 [e]

Amount of molecules per component :
-------------------------------------------------------------------------------
Component 0 (CO2)
    molecules:      2.500000e+02 molecules  (2.500000e+02 +/- 0.000000e+00)
    number density: 1.429327e-02 molec./A^3 (1.447877e-02 +/- 0.000000e+00)
    density:        1.044291e+03 kg/m^3     (1.057844e+03 +/- 0.000000e+00)

Average pressure tensor: 
-------------------------------------------------------------------------------
 2.3981e+01 -1.7952e+01 -1.0817e+02 +/- 0.0000e+00 0.0000e+00 0.0000e+00 [bar]
-1.7952e+01 -6.9034e+01  3.9241e+01 +/- 0.0000e+00 0.0000e+00 0.0000e+00 [bar]
-1.0817e+02  3.9241e+01  1.7200e+02 +/- 0.0000e+00 0.0000e+00 0.0000e+00 [bar]
Ideal-gas pressure:   4.997529e+02 +/ 0.000000e+00 [bar]
Excess pressure:     -4.574374e+02 +/ 0.000000e+00 [bar]
Pressure:             4.231547e+01 +/ 0.000000e+00 [bar]

Total potential energy/kʙ  -3.769829e+05 (-3.766764e+05 +/- 0.000000e+00) [K]
-------------------------------------------------------------------------------
ExternalField-molecule
    Van der Waals/kʙ        0.000000e+00 ( 0.000000e+00 +/- 0.000000e+00) [K]
Framework-molecule
    Van der Waals/kʙ        0.000000e+00 ( 0.000000e+00 +/- 0.000000e+00) [K]
    Van der Waals (Tail)/kʙ 0.000000e+00 ( 0.000000e+00 +/- 0.000000e+00) [K]
    Coulombic Real/kʙ       0.000000e+00 ( 0.000000e+00 +/- 0.000000e+00) [K]
    Coulombic Fourier/kʙ    0.000000e+00 ( 0.000000e+00 +/- 0.000000e+00) [K]
Molecule-molecule
    Van der Waals/kʙ       -2.735277e+05 (-2.737176e+05 +/- 0.000000e+00) [K]
    Van der Waals (Tail)/kʙ-8.614876e+03 (-8.712941e+03 +/- 0.000000e+00) [K]
    Coulombic Real/kʙ      -8.288832e+04 (-8.208289e+04 +/- 0.000000e+00) [K]
    Coulombic Fourier/kʙ   -1.195204e+04 (-1.216298e+04 +/- 0.000000e+00) [K]
    Molecule Intra/kʙ       0.000000e+00 ( 0.000000e+00 +/- 0.000000e+00) [K]

Current cycle: 300 out of 5000
===============================================================================

Box:      25.54362   0.00000   0.00000  Average:  25.81070   0.00000   0.00000
           0.00000  25.54362   0.00000             0.00000  25.81070   0.00000
           0.00000   0.00000  25.54362             0.00000   0.00000  25.81070
Lengths:  25.54362  25.54362  25.54362  Average:  25.81070  25.81070  25.81070
Angles:   90.00000  90.00000  90.00000  Average:  90.00000  90.00000  90.00000
Rectangular boundary conditions

net charge:   0.00000000

component 0 (CO2) lambda:  0 occupancy:  1 (1.000000)
    net charge:   0.00000000 [e]

Amount of molecules per component :
-------------------------------------------------------------------------------
Component 0 (CO2)
    molecules:      2.500000e+02 molecules  (2.500000e+02 +/- 0.000000e+00)
    number density: 1.500005e-02 molec./A^3 (1.454102e-02 +/- 0.000000e+00)
    density:        1.095929e+03 kg/m^3     (1.062392e+03 +/- 0.000000e+00)

Average pressure tensor: 
-------------------------------------------------------------------------------
 2.1150e+01 -3.8723e+01 -5.3068e+01 +/- 0.0000e+00 0.0000e+00 0.0000e+00 [bar]
-3.8723e+01  1.7182e+01  2.6415e+01 +/- 0.0000e+00 0.0000e+00 0.0000e+00 [bar]
-5.3068e+01  2.6415e+01  1.6351e+02 +/- 0.0000e+00 0.0000e+00 0.0000e+00 [bar]
Ideal-gas pressure:   5.019015e+02 +/ 0.000000e+00 [bar]
Excess pressure:     -4.346219e+02 +/ 0.000000e+00 [bar]
Pressure:             6.727960e+01 +/ 0.000000e+00 [bar]

Total potential energy/kʙ  -3.985141e+05 (-3.803337e+05 +/- 0.000000e+00) [K]
-------------------------------------------------------------------------------
ExternalField-molecule
    Van der Waals/kʙ        0.000000e+00 ( 0.000000e+00 +/- 0.000000e+00) [K]
Framework-molecule
    Van der Waals/kʙ        0.000000e+00 ( 0.000000e+00 +/- 0.000000e+00) [K]
    Van der Waals (Tail)/kʙ 0.000000e+00 ( 0.000000e+00 +/- 0.000000e+00) [K]
    Coulombic Real/kʙ       0.000000e+00 ( 0.000000e+00 +/- 0.000000e+00) [K]
    Coulombic Fourier/kʙ    0.000000e+00 ( 0.000000e+00 +/- 0.000000e+00) [K]
Molecule-molecule
    Van der Waals/kʙ       -2.895892e+05 (-2.761280e+05 +/- 0.000000e+00) [K]
    Van der Waals (Tail)/kʙ-9.040863e+03 (-8.761301e+03 +/- 0.000000e+00) [K]
    Coulombic Real/kʙ      -8.740167e+04 (-8.317331e+04 +/- 0.000000e+00) [K]
    Coulombic Fourier/kʙ   -1.248234e+04 (-1.227115e+04 +/- 0.000000e+00) [K]
    Molecule Intra/kʙ       0.000000e+00 ( 0.000000e+00 +/- 0.000000e+00) [K]

Current cycle: 400 out of 5000
===============================================================================

Box:      25.59489   0.00000   0.00000  Average:  25.77271   0.00000   0.00000
           0.00000  25.59489   0.00000             0.00000  25.77271   0.00000
           0.00000   0.00000  25.59489             0.00000   0.00000  25.77271
Lengths:  25.59489  25.59489  25.59489  Average:  25.77271  25.77271  25.77271
Angles:   90.00000  90.00000  90.00000  Average:  90.00000  90.00000  90.00000
Rectangular boundary conditions

net charge:   0.00000000

component 0 (CO2) lambda:  0 occupancy:  1 (1.000000)
    net charge:   0.00000000 [e]

Amount of molecules per component :
-------------------------------------------------------------------------------
Component 0 (CO2)
    molecules:      2.500000e+02 molecules  (2.500000e+02 +/- 0.000000e+00)
    number density: 1.491009e-02 molec./A^3 (1.460588e-02 +/- 0.000000e+00)
    density:        1.089357e+03 kg/m^3     (1.067130e+03 +/- 0.000000e+00)

Average pressure tensor: 
-------------------------------------------------------------------------------
 3.6894e+01 -1.7508e+01 -3.1579e+01 +/- 0.0000e+00 0.0000e+00 0.0000e+00 [bar]
-1.7508e+01  6.4540e+01  3.3570e+01 +/- 0.0000e+00 0.0000e+00 0.0000e+00 [bar]
-3.1579e+01  3.3570e+01  2.0163e+02 +/- 0.0000e+00 0.0000e+00 0.0000e+00 [bar]
Ideal-gas pressure:   5.041402e+02 +/ 0.000000e+00 [bar]
Excess pressure:     -4.031182e+02 +/ 0.000000e+00 [bar]
Pressure:             1.010220e+02 +/ 0.000000e+00 [bar]

Total potential energy/kʙ  -3.902204e+05 (-3.819839e+05 +/- 0.000000e+00) [K]
-------------------------------------------------------------------------------
ExternalField-molecule
    Van der Waals/kʙ        0.000000e+00 ( 0.000000e+00 +/- 0.000000e+00) [K]
Framework-molecule
    Van der Waals/kʙ        0.000000e+00 ( 0.000000e+00 +/- 0.000000e+00) [K]
    Van der Waals (Tail)/kʙ 0.000000e+00 ( 0.000000e+00 +/- 0.000000e+00) [K]
    Coulombic Real/kʙ       0.000000e+00 ( 0.000000e+00 +/- 0.000000e+00) [K]
    Coulombic Fourier/kʙ    0.000000e+00 ( 0.000000e+00 +/- 0.000000e+00) [K]
Molecule-molecule
    Van der Waals/kʙ       -2.808272e+05 (-2.766856e+05 +/- 0.000000e+00) [K]
    Van der Waals (Tail)/kʙ-8.986647e+03 (-8.805149e+03 +/- 0.000000e+00) [K]
    Coulombic Real/kʙ      -8.733461e+04 (-8.405927e+04 +/- 0.000000e+00) [K]
    Coulombic Fourier/kʙ   -1.307196e+04 (-1.243382e+04 +/- 0.000000e+00) [K]
    Molecule Intra/kʙ       0.000000e+00 ( 0.000000e+00 +/- 0.000000e+00) [K]

Current cycle: 500 out of 5000
===============================================================================

Box:      25.62944   0.00000   0.00000  Average:  25.73040   0.00000   0.00000
           0.00000  25.62944   0.00000             0.00000  25.73040   0.00000
           0.00000   0.00000  25.62944             0.00000   0.00000  25.73040
Lengths:  25.62944  25.62944  25.62944  Average:  25.73040  25.73040  25.73040
Angles:   90.00000  90.00000  90.00000  Average:  90.00000  90.00000  90.00000
Rectangular boundary conditions

net charge:   0.00000000

component 0 (CO2) lambda:  0 occupancy:  1 (1.000000)
    net charge:   0.00000000 [e]

Amount of molecules per component :
-------------------------------------------------------------------------------
Component 0 (CO2)
    molecules:      2.500000e+02 molecules  (2.500000e+02 +/- 0.000000e+00)
    number density: 1.484986e-02 molec./A^3 (1.467867e-02 +/- 0.000000e+00)
    density:        1.084956e+03 kg/m^3     (1.072449e+03 +/- 0.000000e+00)

Average pressure tensor: 
-------------------------------------------------------------------------------
 1.7480e+01 -1.0902e+01 -1.1208e+01 +/- 0.0000e+00 0.0000e+00 0.0000e+00 [bar]
-1.0902e+01  7.6033e+01  2.6227e+00 +/- 0.0000e+00 0.0000e+00 0.0000e+00 [bar]
-1.1208e+01  2.6227e+00  1.7531e+02 +/- 0.0000e+00 0.0000e+00 0.0000e+00 [bar]
Ideal-gas pressure:   5.066528e+02 +/ 0.000000e+00 [bar]
Excess pressure:     -4.170466e+02 +/ 0.000000e+00 [bar]
Pressure:             8.960621e+01 +/ 0.000000e+00 [bar]

Total potential energy/kʙ  -3.974702e+05 (-3.846164e+05 +/- 0.000000e+00) [K]
-------------------------------------------------------------------------------
ExternalField-molecule
    Van der Waals/kʙ        0.000000e+00 ( 0.000000e+00 +/- 0.000000e+00) [K]
Framework-molecule
    Van der Waals/kʙ        0.000000e+00 ( 0.000000e+00 +/- 0.000000e+00) [K]
    Van der Waals (Tail)/kʙ 0.000000e+00 ( 0.000000e+00 +/- 0.000000e+00) [K]
    Coulombic Real/kʙ       0.000000e+00 ( 0.000000e+00 +/- 0.000000e+00) [K]
    Coulombic Fourier/kʙ    0.000000e+00 ( 0.000000e+00 +/- 0.000000e+00) [K]
Molecule-molecule
    Van der Waals/kʙ       -2.820589e+05 (-2.781911e+05 +/- 0.000000e+00) [K]
    Van der Waals (Tail)/kʙ-8.950344e+03 (-8.840773e+03 +/- 0.000000e+00) [K]
    Coulombic Real/kʙ      -9.339003e+04 (-8.497429e+04 +/- 0.000000e+00) [K]
    Coulombic Fourier/kʙ   -1.307096e+04 (-1.261030e+04 +/- 0.000000e+00) [K]
    Molecule Intra/kʙ       0.000000e+00 ( 0.000000e+00 +/- 0.000000e+00) [K]

Current cycle: 600 out of 5000
===============================================================================

Box:      25.79662   0.00000   0.00000  Average:  25.72268   0.00000   0.00000
           0.00000  25.79662   0.00000             0.00000  25.72268   0.00000
           0.00000   0.00000  25.79662             0.00000   0.00000  25.72268
Lengths:  25.79662  25.79662  25.79662  Average:  25.72268  25.72268  25.72268
Angles:   90.00000  90.00000  90.00000  Average:  90.00000  90.00000  90.00000
Rectangular boundary conditions

net charge:   0.00000000

component 0 (CO2) lambda:  0 occupancy:  1 (1.000000)
    net charge:   0.00000000 [e]

Amount of molecules per component :
-------------------------------------------------------------------------------
Component 0 (CO2)
    molecules:      2.500000e+02 molecules  (2.500000e+02 +/- 0.000000e+00)
    number density: 1.456303e-02 molec./A^3 (1.469152e-02 +/- 0.000000e+00)
    density:        1.064000e+03 kg/m^3     (1.073388e+03 +/- 0.000000e+00)

Average pressure tensor: 
-------------------------------------------------------------------------------
 1.4971e+01 -8.6213e+00 -1.3648e+00 +/- 0.0000e+00 0.0000e+00 0.0000e+00 [bar]
-8.6213e+00  7.2579e+01  7.7963e+00 +/- 0.0000e+00 0.0000e+00 0.0000e+00 [bar]
-1.3648e+00  7.7963e+00  1.3470e+02 +/- 0.0000e+00 0.0000e+00 0.0000e+00 [bar]
Ideal-gas pressure:   5.070964e+02 +/ 0.000000e+00 [bar]
Excess pressure:     -4.330122e+02 +/ 0.000000e+00 [bar]
Pressure:             7.408424e+01 +/ 0.000000e+00 [bar]

Total potential energy/kʙ  -3.872034e+05 (-3.853527e+05 +/- 0.000000e+00) [K]
-------------------------------------------------------------------------------
ExternalField-molecule
    Van der Waals/kʙ        0.000000e+00 ( 0.000000e+00 +/- 0.000000e+00) [K]
Framework-molecule
    Van der Waals/kʙ        0.000000e+00 ( 0.000000e+00 +/- 0.000000e+00) [K]
    Van der Waals (Tail)/kʙ 0.000000e+00 ( 0.000000e+00 +/- 0.000000e+00) [K]
    Coulombic Real/kʙ       0.000000e+00 ( 0.000000e+00 +/- 0.000000e+00) [K]
    Coulombic Fourier/kʙ    0.000000e+00 ( 0.000000e+00 +/- 0.000000e+00) [K]
Molecule-molecule
    Van der Waals/kʙ       -2.801635e+05 (-2.785059e+05 +/- 0.000000e+00) [K]
    Van der Waals (Tail)/kʙ-8.777464e+03 (-8.842182e+03 +/- 0.000000e+00) [K]
    Coulombic Real/kʙ      -8.570517e+04 (-8.543841e+04 +/- 0.000000e+00) [K]
    Coulombic Fourier/kʙ   -1.255730e+04 (-1.256619e+04 +/- 0.000000e+00) [K]
    Molecule Intra/kʙ       0.000000e+00 ( 0.000000e+00 +/- 0.000000e+00) [K]

Current cycle: 700 out of 5000
===============================================================================

Box:      26.05021   0.00000   0.00000  Average:  25.74184   0.00000   0.00000
           0.00000  26.05021   0.00000             0.00000  25.74184   0.00000
           0.00000   0.00000  26.05021             0.00000   0.00000  25.74184
Lengths:  26.05021  26.05021  26.05021  Average:  25.74184  25.74184  25.74184
Angles:   90.00000  90.00000  90.00000  Average:  90.00000  90.00000  90.00000
Rectangular boundary conditions

net charge:   0.00000000

component 0 (CO2) lambda:  0 occupancy:  1 (1.000000)
    net charge:   0.00000000 [e]

Amount of molecules per component :
-------------------------------------------------------------------------------
Component 0 (CO2)
    molecules:      2.500000e+02 molecules  (2.500000e+02 +/- 0.000000e+00)
    number density: 1.414186e-02 molec./A^3 (1.465900e-02 +/- 0.000000e+00)
    density:        1.033228e+03 kg/m^3     (1.071011e+03 +/- 0.000000e+00)

Average pressure tensor: 
-------------------------------------------------------------------------------
 2.1002e+01 -9.9267e+00 -1.6171e+00 +/- 0.0000e+00 0.0000e+00 0.0000e+00 [bar]
-9.9267e+00  6.8486e+01 -1.7846e+01 +/- 0.0000e+00 0.0000e+00 0.0000e+00 [bar]
-1.6171e+00 -1.7846e+01  1.1434e+02 +/- 0.0000e+00 0.0000e+00 0.0000e+00 [bar]
Ideal-gas pressure:   5.059737e+02 +/ 0.000000e+00 [bar]
Excess pressure:     -4.380294e+02 +/ 0.000000e+00 [bar]
Pressure:             6.794428e+01 +/ 0.000000e+00 [bar]

Total potential energy/kʙ  -3.752622e+05 (-3.848215e+05 +/- 0.000000e+00) [K]
-------------------------------------------------------------------------------
ExternalField-molecule
    Van der Waals/kʙ        0.000000e+00 ( 0.000000e+00 +/- 0.000000e+00) [K]
Framework-molecule
    Van der Waals/kʙ        0.000000e+00 ( 0.000000e+00 +/- 0.000000e+00) [K]
    Van der Waals (Tail)/kʙ 0.000000e+00 ( 0.000000e+00 +/- 0.000000e+00) [K]
    Coulombic Real/kʙ       0.000000e+00 ( 0.000000e+00 +/- 0.000000e+00) [K]
    Coulombic Fourier/kʙ    0.000000e+00 ( 0.000000e+00 +/- 0.000000e+00) [K]
Molecule-molecule
    Van der Waals/kʙ       -2.743560e+05 (-2.779378e+05 +/- 0.000000e+00) [K]
    Van der Waals (Tail)/kʙ-8.523614e+03 (-8.821765e+03 +/- 0.000000e+00) [K]
    Coulombic Real/kʙ      -8.122143e+04 (-8.550883e+04 +/- 0.000000e+00) [K]
    Coulombic Fourier/kʙ   -1.116107e+04 (-1.255309e+04 +/- 0.000000e+00) [K]
    Molecule Intra/kʙ       0.000000e+00 ( 0.000000e+00 +/- 0.000000e+00) [K]

Current cycle: 800 out of 5000
===============================================================================

Box:      26.10369   0.00000   0.00000  Average:  25.78366   0.00000   0.00000
           0.00000  26.10369   0.00000             0.00000  25.78366   0.00000
           0.00000   0.00000  26.10369             0.00000   0.00000  25.78366
Lengths:  26.10369  26.10369  26.10369  Average:  25.78366  25.78366  25.78366
Angles:   90.00000  90.00000  90.00000  Average:  90.00000  90.00000  90.00000
Rectangular boundary conditions

net charge:   0.00000000

component 0 (CO2) lambda:  0 occupancy:  1 (1.000000)
    net charge:   0.00000000 [e]

Amount of molecules per component :
-------------------------------------------------------------------------------
Component 0 (CO2)
    molecules:      2.500000e+02 molecules  (2.500000e+02 +/- 0.000000e+00)
    number density: 1.405511e-02 molec./A^3 (1.458916e-02 +/- 0.000000e+00)
    density:        1.026890e+03 kg/m^3     (1.065909e+03 +/- 0.000000e+00)

Average pressure tensor: 
-------------------------------------------------------------------------------
 4.0740e+01 -1.0108e+01  8.9394e+00 +/- 0.0000e+00 0.0000e+00 0.0000e+00 [bar]
-1.0108e+01  7.1357e+01 -2.9711e+01 +/- 0.0000e+00 0.0000e+00 0.0000e+00 [bar]
 8.9394e+00 -2.9711e+01  7.9550e+01 +/- 0.0000e+00 0.0000e+00 0.0000e+00 [bar]
Ideal-gas pressure:   5.035631e+02 +/ 0.000000e+00 [bar]
Excess pressure:     -4.396807e+02 +/ 0.000000e+00 [bar]
Pressure:             6.388235e+01 +/ 0.000000e+00 [bar]

Total potential energy/kʙ  -3.591161e+05 (-3.832220e+05 +/- 0.000000e+00) [K]
-------------------------------------------------------------------------------
ExternalField-molecule
    Van der Waals/kʙ        0.000000e+00 ( 0.000000e+00 +/- 0.000000e+00) [K]
Framework-molecule
    Van der Waals/kʙ        0.000000e+00 ( 0.000000e+00 +/- 0.000000e+00) [K]
    Van der Waals (Tail)/kʙ 0.000000e+00 ( 0.000000e+00 +/- 0.000000e+00) [K]
    Coulombic Real/kʙ       0.000000e+00 ( 0.000000e+00 +/- 0.000000e+00) [K]
    Coulombic Fourier/kʙ    0.000000e+00 ( 0.000000e+00 +/- 0.000000e+00) [K]
Molecule-molecule
    Van der Waals/kʙ       -2.610240e+05 (-2.766644e+05 +/- 0.000000e+00) [K]
    Van der Waals (Tail)/kʙ-8.471327e+03 (-8.782416e+03 +/- 0.000000e+00) [K]
    Coulombic Real/kʙ      -7.839035e+04 (-8.530311e+04 +/- 0.000000e+00) [K]
    Coulombic Fourier/kʙ   -1.123048e+04 (-1.247208e+04 +/- 0.000000e+00) [K]
    Molecule Intra/kʙ       0.000000e+00 ( 0.000000e+00 +/- 0.000000e+00) [K]

Current cycle: 900 out of 5000
===============================================================================

Box:      25.96133   0.00000   0.00000  Average:  25.81605   0.00000   0.00000
           0.00000  25.96133   0.00000             0.00000  25.81605   0.00000
           0.00000   0.00000  25.96133             0.00000   0.00000  25.81605
Lengths:  25.96133  25.96133  25.96133  Average:  25.81605  25.81605  25.81605
Angles:   90.00000  90.00000  90.00000  Average:  90.00000  90.00000  90.00000
Rectangular boundary conditions

net charge:   0.00000000

component 0 (CO2) lambda:  0 occupancy:  1 (1.000000)
    net charge:   0.00000000 [e]

Amount of molecules per component :
-------------------------------------------------------------------------------
Component 0 (CO2)
    molecules:      2.500000e+02 molecules  (2.500000e+02 +/- 0.000000e+00)
    number density: 1.428760e-02 molec./A^3 (1.453528e-02 +/- 0.000000e+00)
    density:        1.043876e+03 kg/m^3     (1.061972e+03 +/- 0.000000e+00)

Average pressure tensor: 
-------------------------------------------------------------------------------
 5.6570e+01 -9.0175e+00  2.7181e+01 +/- 0.0000e+00 0.0000e+00 0.0000e+00 [bar]
-9.0175e+00  6.1216e+01 -1.7394e+01 +/- 0.0000e+00 0.0000e+00 0.0000e+00 [bar]
 2.7181e+01 -1.7394e+01  7.7739e+01 +/- 0.0000e+00 0.0000e+00 0.0000e+00 [bar]
Ideal-gas pressure:   5.017033e+02 +/ 0.000000e+00 [bar]
Excess pressure:     -4.365281e+02 +/ 0.000000e+00 [bar]
Pressure:             6.517522e+01 +/ 0.000000e+00 [bar]

Total potential energy/kʙ  -3.748250e+05 (-3.825438e+05 +/- 0.000000e+00) [K]
-------------------------------------------------------------------------------
ExternalField-molecule
    Van der Waals/kʙ        0.000000e+00 ( 0.000000e+00 +/- 0.000000e+00) [K]
Framework-molecule
    Van der Waals/kʙ        0.000000e+00 ( 0.000000e+00 +/- 0.000000e+00) [K]
    Van der Waals (Tail)/kʙ 0.000000e+00 ( 0.000000e+00 +/- 0.000000e+00) [K]
    Coulombic Real/kʙ       0.000000e+00 ( 0.000000e+00 +/- 0.000000e+00) [K]
    Coulombic Fourier/kʙ    0.000000e+00 ( 0.000000e+00 +/- 0.000000e+00) [K]
Molecule-molecule
    Van der Waals/kʙ       -2.648851e+05 (-2.756531e+05 +/- 0.000000e+00) [K]
    Van der Waals (Tail)/kʙ-8.611455e+03 (-8.753918e+03 +/- 0.000000e+00) [K]
    Coulombic Real/kʙ      -8.869125e+04 (-8.564115e+04 +/- 0.000000e+00) [K]
    Coulombic Fourier/kʙ   -1.263728e+04 (-1.249563e+04 +/- 0.000000e+00) [K]
    Molecule Intra/kʙ       0.000000e+00 ( 0.000000e+00 +/- 0.000000e+00) [K]

Current cycle: 1000 out of 5000
===============================================================================

Box:      26.10434   0.00000   0.00000  Average:  25.83061   0.00000   0.00000
           0.00000  26.10434   0.00000             0.00000  25.83061   0.00000
           0.00000   0.00000  26.10434             0.00000   0.00000  25.83061
Lengths:  26.10434  26.10434  26.10434  Average:  25.83061  25.83061  25.83061
Angles:   90.00000  90.00000  90.00000  Average:  90.00000  90.00000  90.00000
Rectangular boundary conditions

net charge:   0.00000000

component 0 (CO2) lambda:  0 occupancy:  1 (1.000000)
    net charge:   0.00000000 [e]

Amount of molecules per component :
-------------------------------------------------------------------------------
Component 0 (CO2)
    molecules:      2.500000e+02 molecules  (2.500000e+02 +/- 0.000000e+00)
    number density: 1.405406e-02 molec./A^3 (1.451062e-02 +/- 0.000000e+00)
    density:        1.026814e+03 kg/m^3     (1.060171e+03 +/- 0.000000e+00)

Average pressure tensor: 
-------------------------------------------------------------------------------
 3.0947e+01 -3.8785e+00  3.5384e+01 +/- 0.0000e+00 0.0000e+00 0.0000e+00 [bar]
-3.8785e+00  7.5719e+01 -2.9049e+01 +/- 0.0000e+00 0.0000e+00 0.0000e+00 [bar]
 3.5384e+01 -2.9049e+01  7.8696e+01 +/- 0.0000e+00 0.0000e+00 0.0000e+00 [bar]
Ideal-gas pressure:   5.008525e+02 +/ 0.000000e+00 [bar]
Excess pressure:     -4.390651e+02 +/ 0.000000e+00 [bar]
Pressure:             6.178731e+01 +/ 0.000000e+00 [bar]

Total potential energy/kʙ  -3.785076e+05 (-3.822042e+05 +/- 0.000000e+00) [K]
-------------------------------------------------------------------------------
ExternalField-molecule
    Van der Waals/kʙ        0.000000e+00 ( 0.000000e+00 +/- 0.000000e+00) [K]
Framework-molecule
    Van der Waals/kʙ        0.000000e+00 ( 0.000000e+00 +/- 0.000000e+00) [K]
    Van der Waals (Tail)/kʙ 0.000000e+00 ( 0.000000e+00 +/- 0.000000e+00) [K]
    Coulombic Real/kʙ       0.000000e+00 ( 0.000000e+00 +/- 0.000000e+00) [K]
    Coulombic Fourier/kʙ    0.000000e+00 ( 0.000000e+00 +/- 0.000000e+00) [K]
Molecule-molecule
    Van der Waals/kʙ       -2.665377e+05 (-2.749901e+05 +/- 0.000000e+00) [K]
    Van der Waals (Tail)/kʙ-8.470699e+03 (-8.739856e+03 +/- 0.000000e+00) [K]
    Coulombic Real/kʙ      -9.030386e+04 (-8.592942e+04 +/- 0.000000e+00) [K]
    Coulombic Fourier/kʙ   -1.319536e+04 (-1.254485e+04 +/- 0.000000e+00) [K]
    Molecule Intra/kʙ       0.000000e+00 ( 0.000000e+00 +/- 0.000000e+00) [K]

Current cycle: 1100 out of 5000
===============================================================================

Box:      26.03199   0.00000   0.00000  Average:  25.84670   0.00000   0.00000
           0.00000  26.03199   0.00000             0.00000  25.84670   0.00000
           0.00000   0.00000  26.03199             0.00000   0.00000  25.84670
Lengths:  26.03199  26.03199  26.03199  Average:  25.84670  25.84670  25.84670
Angles:   90.00000  90.00000  90.00000  Average:  90.00000  90.00000  90.00000
Rectangular boundary conditions

net charge:   0.00000000

component 0 (CO2) lambda:  0 occupancy:  1 (1.000000)
    net charge:   0.00000000 [e]

Amount of molecules per component :
-------------------------------------------------------------------------------
Component 0 (CO2)
    molecules:      2.500000e+02 molecules  (2.500000e+02 +/- 0.000000e+00)
    number density: 1.417156e-02 molec./A^3 (1.448351e-02 +/- 0.000000e+00)
    density:        1.035398e+03 kg/m^3     (1.058190e+03 +/- 0.000000e+00)

Average pressure tensor: 
-------------------------------------------------------------------------------
 1.2066e+01 -4.9026e+00  3.7591e+01 +/- 0.0000e+00 0.0000e+00 0.0000e+00 [bar]
-4.9026e+00  6.9016e+01 -3.4509e+01 +/- 0.0000e+00 0.0000e+00 0.0000e+00 [bar]
 3.7591e+01 -3.4509e+01  7.7925e+01 +/- 0.0000e+00 0.0000e+00 0.0000e+00 [bar]
Ideal-gas pressure:   4.999165e+02 +/ 0.000000e+00 [bar]
Excess pressure:     -4.469143e+02 +/ 0.000000e+00 [bar]
Pressure:             5.300224e+01 +/ 0.000000e+00 [bar]

Total potential energy/kʙ  -3.724392e+05 (-3.812750e+05 +/- 0.000000e+00) [K]
-------------------------------------------------------------------------------
ExternalField-molecule
    Van der Waals/kʙ        0.000000e+00 ( 0.000000e+00 +/- 0.000000e+00) [K]
Framework-molecule
    Van der Waals/kʙ        0.000000e+00 ( 0.000000e+00 +/- 0.000000e+00) [K]
    Van der Waals (Tail)/kʙ 0.000000e+00 ( 0.000000e+00 +/- 0.000000e+00) [K]
    Coulombic Real/kʙ       0.000000e+00 ( 0.000000e+00 +/- 0.000000e+00) [K]
    Coulombic Fourier/kʙ    0.000000e+00 ( 0.000000e+00 +/- 0.000000e+00) [K]
Molecule-molecule
    Van der Waals/kʙ       -2.672436e+05 (-2.743364e+05 +/- 0.000000e+00) [K]
    Van der Waals (Tail)/kʙ-8.541517e+03 (-8.723073e+03 +/- 0.000000e+00) [K]
    Coulombic Real/kʙ      -8.379656e+04 (-8.565909e+04 +/- 0.000000e+00) [K]
    Coulombic Fourier/kʙ   -1.285752e+04 (-1.255645e+04 +/- 0.000000e+00) [K]
    Molecule Intra/kʙ       0.000000e+00 ( 0.000000e+00 +/- 0.000000e+00) [K]

Current cycle: 1200 out of 5000
===============================================================================

Box:      25.70499   0.00000   0.00000  Average:  25.85163   0.00000   0.00000
           0.00000  25.70499   0.00000             0.00000  25.85163   0.00000
           0.00000   0.00000  25.70499             0.00000   0.00000  25.85163
Lengths:  25.70499  25.70499  25.70499  Average:  25.85163  25.85163  25.85163
Angles:   90.00000  90.00000  90.00000  Average:  90.00000  90.00000  90.00000
Rectangular boundary conditions

net charge:   0.00000000

component 0 (CO2) lambda:  0 occupancy:  1 (1.000000)
    net charge:   0.00000000 [e]

Amount of molecules per component :
-------------------------------------------------------------------------------
Component 0 (CO2)
    molecules:      2.500000e+02 molecules  (2.500000e+02 +/- 0.000000e+00)
    number density: 1.471931e-02 molec./A^3 (1.447495e-02 +/- 0.000000e+00)
    density:        1.075418e+03 kg/m^3     (1.057564e+03 +/- 0.000000e+00)

Average pressure tensor: 
-------------------------------------------------------------------------------
 2.5008e+01 -1.3057e+01  3.5965e+01 +/- 0.0000e+00 0.0000e+00 0.0000e+00 [bar]
-1.3057e+01  6.0570e+01 -3.9835e+01 +/- 0.0000e+00 0.0000e+00 0.0000e+00 [bar]
 3.5965e+01 -3.9835e+01  9.0640e+01 +/- 0.0000e+00 0.0000e+00 0.0000e+00 [bar]
Ideal-gas pressure:   4.996210e+02 +/ 0.000000e+00 [bar]
Excess pressure:     -4.408816e+02 +/ 0.000000e+00 [bar]
Pressure:             5.873937e+01 +/ 0.000000e+00 [bar]

Total potential energy/kʙ  -3.869723e+05 (-3.811778e+05 +/- 0.000000e+00) [K]
-------------------------------------------------------------------------------
ExternalField-molecule
    Van der Waals/kʙ        0.000000e+00 ( 0.000000e+00 +/- 0.000000e+00) [K]
Framework-molecule
    Van der Waals/kʙ        0.000000e+00 ( 0.000000e+00 +/- 0.000000e+00) [K]
    Van der Waals (Tail)/kʙ 0.000000e+00 ( 0.000000e+00 +/- 0.000000e+00) [K]
    Coulombic Real/kʙ       0.000000e+00 ( 0.000000e+00 +/- 0.000000e+00) [K]
    Coulombic Fourier/kʙ    0.000000e+00 ( 0.000000e+00 +/- 0.000000e+00) [K]
Molecule-molecule
    Van der Waals/kʙ       -2.817871e+05 (-2.741432e+05 +/- 0.000000e+00) [K]
    Van der Waals (Tail)/kʙ-8.871658e+03 (-8.721077e+03 +/- 0.000000e+00) [K]
    Coulombic Real/kʙ      -8.351838e+04 (-8.572133e+04 +/- 0.000000e+00) [K]
    Coulombic Fourier/kʙ   -1.279512e+04 (-1.259221e+04 +/- 0.000000e+00) [K]
    Molecule Intra/kʙ       0.000000e+00 ( 0.000000e+00 +/- 0.000000e+00) [K]

Current cycle: 1300 out of 5000
===============================================================================

Box:      25.81009   0.00000   0.00000  Average:  25.84508   0.00000   0.00000
           0.00000  25.81009   0.00000             0.00000  25.84508   0.00000
           0.00000   0.00000  25.81009             0.00000   0.00000  25.84508
Lengths:  25.81009  25.81009  25.81009  Average:  25.84508  25.84508  25.84508
Angles:   90.00000  90.00000  90.00000  Average:  90.00000  90.00000  90.00000
Rectangular boundary conditions

net charge:   0.00000000

component 0 (CO2) lambda:  0 occupancy:  1 (1.000000)
    net charge:   0.00000000 [e]

Amount of molecules per component :
-------------------------------------------------------------------------------
Component 0 (CO2)
    molecules:      2.500000e+02 molecules  (2.500000e+02 +/- 0.000000e+00)
    number density: 1.454023e-02 molec./A^3 (1.448575e-02 +/- 0.000000e+00)
    density:        1.062334e+03 kg/m^3     (1.058354e+03 +/- 0.000000e+00)

Average pressure tensor: 
-------------------------------------------------------------------------------
 2.9418e+01 -1.3357e+01  4.6141e+01 +/- 0.0000e+00 0.0000e+00 0.0000e+00 [bar]
-1.3357e+01  5.4741e+01 -5.1595e+01 +/- 0.0000e+00 0.0000e+00 0.0000e+00 [bar]
 4.6141e+01 -5.1595e+01  9.3653e+01 +/- 0.0000e+00 0.0000e+00 0.0000e+00 [bar]
Ideal-gas pressure:   4.999939e+02 +/ 0.000000e+00 [bar]
Excess pressure:     -4.407234e+02 +/ 0.000000e+00 [bar]
Pressure:             5.927045e+01 +/ 0.000000e+00 [bar]

Total potential energy/kʙ  -3.833127e+05 (-3.818023e+05 +/- 0.000000e+00) [K]
-------------------------------------------------------------------------------
ExternalField-molecule
    Van der Waals/kʙ        0.000000e+00 ( 0.000000e+00 +/- 0.000000e+00) [K]
Framework-molecule
    Van der Waals/kʙ        0.000000e+00 ( 0.000000e+00 +/- 0.000000e+00) [K]
    Van der Waals (Tail)/kʙ 0.000000e+00 ( 0.000000e+00 +/- 0.000000e+00) [K]
    Coulombic Real/kʙ       0.000000e+00 ( 0.000000e+00 +/- 0.000000e+00) [K]
    Coulombic Fourier/kʙ    0.000000e+00 ( 0.000000e+00 +/- 0.000000e+00) [K]
Molecule-molecule
    Van der Waals/kʙ       -2.716863e+05 (-2.743632e+05 +/- 0.000000e+00) [K]
    Van der Waals (Tail)/kʙ-8.763723e+03 (-8.728715e+03 +/- 0.000000e+00) [K]
    Coulombic Real/kʙ      -9.072967e+04 (-8.612092e+04 +/- 0.000000e+00) [K]
    Coulombic Fourier/kʙ   -1.213299e+04 (-1.258952e+04 +/- 0.000000e+00) [K]
    Molecule Intra/kʙ       0.000000e+00 ( 0.000000e+00 +/- 0.000000e+00) [K]

Current cycle: 1400 out of 5000
===============================================================================

Box:      25.85596   0.00000   0.00000  Average:  25.83349   0.00000   0.00000
           0.00000  25.85596   0.00000             0.00000  25.83349   0.00000
           0.00000   0.00000  25.85596             0.00000   0.00000  25.83349
Lengths:  25.85596  25.85596  25.85596  Average:  25.83349  25.83349  25.83349
Angles:   90.00000  90.00000  90.00000  Average:  90.00000  90.00000  90.00000
Rectangular boundary conditions

net charge:   0.00000000

component 0 (CO2) lambda:  0 occupancy:  1 (1.000000)
    net charge:   0.00000000 [e]

Amount of molecules per component :
-------------------------------------------------------------------------------
Component 0 (CO2)
    molecules:      2.500000e+02 molecules  (2.500000e+02 +/- 0.000000e+00)
    number density: 1.446299e-02 molec./A^3 (1.450529e-02 +/- 0.000000e+00)
    density:        1.056691e+03 kg/m^3     (1.059781e+03 +/- 0.000000e+00)

Average pressure tensor: 
-------------------------------------------------------------------------------
 3.2007e+01 -1.6231e+01  3.4233e+01 +/- 0.0000e+00 0.0000e+00 0.0000e+00 [bar]
-1.6231e+01  6.9344e+01 -5.4083e+01 +/- 0.0000e+00 0.0000e+00 0.0000e+00 [bar]
 3.4233e+01 -5.4083e+01  9.8720e+01 +/- 0.0000e+00 0.0000e+00 0.0000e+00 [bar]
Ideal-gas pressure:   5.006684e+02 +/ 0.000000e+00 [bar]
Excess pressure:     -4.339778e+02 +/ 0.000000e+00 [bar]
Pressure:             6.669053e+01 +/ 0.000000e+00 [bar]

Total potential energy/kʙ  -3.824847e+05 (-3.823808e+05 +/- 0.000000e+00) [K]
-------------------------------------------------------------------------------
ExternalField-molecule
    Van der Waals/kʙ        0.000000e+00 ( 0.000000e+00 +/- 0.000000e+00) [K]
Framework-molecule
    Van der Waals/kʙ        0.000000e+00 ( 0.000000e+00 +/- 0.000000e+00) [K]
    Van der Waals (Tail)/kʙ 0.000000e+00 ( 0.000000e+00 +/- 0.000000e+00) [K]
    Coulombic Real/kʙ       0.000000e+00 ( 0.000000e+00 +/- 0.000000e+00) [K]
    Coulombic Fourier/kʙ    0.000000e+00 ( 0.000000e+00 +/- 0.000000e+00) [K]
Molecule-molecule
    Van der Waals/kʙ       -2.731976e+05 (-2.749058e+05 +/- 0.000000e+00) [K]
    Van der Waals (Tail)/kʙ-8.717166e+03 (-8.742002e+03 +/- 0.000000e+00) [K]
    Coulombic Real/kʙ      -8.816252e+04 (-8.618760e+04 +/- 0.000000e+00) [K]
    Coulombic Fourier/kʙ   -1.240740e+04 (-1.254538e+04 +/- 0.000000e+00) [K]
    Molecule Intra/kʙ       0.000000e+00 ( 0.000000e+00 +/- 0.000000e+00) [K]

Current cycle: 1500 out of 5000
===============================================================================

Box:      25.52087   0.00000   0.00000  Average:  25.82555   0.00000   0.00000
           0.00000  25.52087   0.00000             0.00000  25.82555   0.00000
           0.00000   0.00000  25.52087             0.00000   0.00000  25.82555
Lengths:  25.52087  25.52087  25.52087  Average:  25.82555  25.82555  25.82555
Angles:   90.00000  90.00000  90.00000  Average:  90.00000  90.00000  90.00000
Rectangular boundary conditions

net charge:   0.00000000

component 0 (CO2) lambda:  0 occupancy:  1 (1.000000)
    net charge:   0.00000000 [e]

Amount of molecules per component :
-------------------------------------------------------------------------------
Component 0 (CO2)
    molecules:      2.500000e+02 molecules  (2.500000e+02 +/- 0.000000e+00)
    number density: 1.504020e-02 molec./A^3 (1.451857e-02 +/- 0.000000e+00)
    density:        1.098863e+03 kg/m^3     (1.060751e+03 +/- 0.000000e+00)

Average pressure tensor: 
-------------------------------------------------------------------------------
 2.7936e+01 -9.9415e+00  3.4463e+01 +/- 0.0000e+00 0.0000e+00 0.0000e+00 [bar]
-9.9415e+00  6.9699e+01 -5.1240e+01 +/- 0.0000e+00 0.0000e+00 0.0000e+00 [bar]
 3.4463e+01 -5.1240e+01  1.0165e+02 +/- 0.0000e+00 0.0000e+00 0.0000e+00 [bar]
Ideal-gas pressure:   5.011266e+02 +/ 0.000000e+00 [bar]
Excess pressure:     -4.346986e+02 +/ 0.000000e+00 [bar]
Pressure:             6.642797e+01 +/ 0.000000e+00 [bar]

Total potential energy/kʙ  -3.976129e+05 (-3.828234e+05 +/- 0.000000e+00) [K]
-------------------------------------------------------------------------------
ExternalField-molecule
    Van der Waals/kʙ        0.000000e+00 ( 0.000000e+00 +/- 0.000000e+00) [K]
Framework-molecule
    Van der Waals/kʙ        0.000000e+00 ( 0.000000e+00 +/- 0.000000e+00) [K]
    Van der Waals (Tail)/kʙ 0.000000e+00 ( 0.000000e+00 +/- 0.000000e+00) [K]
    Coulombic Real/kʙ       0.000000e+00 ( 0.000000e+00 +/- 0.000000e+00) [K]
    Coulombic Fourier/kʙ    0.000000e+00 ( 0.000000e+00 +/- 0.000000e+00) [K]
Molecule-molecule
    Van der Waals/kʙ       -2.867656e+05 (-2.752372e+05 +/- 0.000000e+00) [K]
    Van der Waals (Tail)/kʙ-9.065066e+03 (-8.750862e+03 +/- 0.000000e+00) [K]
    Coulombic Real/kʙ      -9.012027e+04 (-8.628271e+04 +/- 0.000000e+00) [K]
    Coulombic Fourier/kʙ   -1.166199e+04 (-1.255258e+04 +/- 0.000000e+00) [K]
    Molecule Intra/kʙ       0.000000e+00 ( 0.000000e+00 +/- 0.000000e+00) [K]

Current cycle: 1600 out of 5000
===============================================================================

Box:      25.59175   0.00000   0.00000  Average:  25.81422   0.00000   0.00000
           0.00000  25.59175   0.00000             0.00000  25.81422   0.00000
           0.00000   0.00000  25.59175             0.00000   0.00000  25.81422
Lengths:  25.59175  25.59175  25.59175  Average:  25.81422  25.81422  25.81422
Angles:   90.00000  90.00000  90.00000  Average:  90.00000  90.00000  90.00000
Rectangular boundary conditions

net charge:   0.00000000

component 0 (CO2) lambda:  0 occupancy:  1 (1.000000)
    net charge:   0.00000000 [e]

Amount of molecules per component :
-------------------------------------------------------------------------------
Component 0 (CO2)
    molecules:      2.500000e+02 molecules  (2.500000e+02 +/- 0.000000e+00)
    number density: 1.491558e-02 molec./A^3 (1.453776e-02 +/- 0.000000e+00)
    density:        1.089758e+03 kg/m^3     (1.062154e+03 +/- 0.000000e+00)

Average pressure tensor: 
-------------------------------------------------------------------------------
 3.5615e+01  1.6370e+00  5.0560e+01 +/- 0.0000e+00 0.0000e+00 0.0000e+00 [bar]
 1.6370e+00  6.4189e+01 -4.3918e+01 +/- 0.0000e+00 0.0000e+00 0.0000e+00 [bar]
 5.0560e+01 -4.3918e+01  1.0125e+02 +/- 0.0000e+00 0.0000e+00 0.0000e+00 [bar]
Ideal-gas pressure:   5.017891e+02 +/ 0.000000e+00 [bar]
Excess pressure:     -4.347703e+02 +/ 0.000000e+00 [bar]
Pressure:             6.701877e+01 +/ 0.000000e+00 [bar]

Total potential energy/kʙ  -3.927970e+05 (-3.833280e+05 +/- 0.000000e+00) [K]
-------------------------------------------------------------------------------
ExternalField-molecule
    Van der Waals/kʙ        0.000000e+00 ( 0.000000e+00 +/- 0.000000e+00) [K]
Framework-molecule
    Van der Waals/kʙ        0.000000e+00 ( 0.000000e+00 +/- 0.000000e+00) [K]
    Van der Waals (Tail)/kʙ 0.000000e+00 ( 0.000000e+00 +/- 0.000000e+00) [K]
    Coulombic Real/kʙ       0.000000e+00 ( 0.000000e+00 +/- 0.000000e+00) [K]
    Coulombic Fourier/kʙ    0.000000e+00 ( 0.000000e+00 +/- 0.000000e+00) [K]
Molecule-molecule
    Van der Waals/kʙ       -2.818429e+05 (-2.755917e+05 +/- 0.000000e+00) [K]
    Van der Waals (Tail)/kʙ-8.989954e+03 (-8.761563e+03 +/- 0.000000e+00) [K]
    Coulombic Real/kʙ      -8.941523e+04 (-8.643013e+04 +/- 0.000000e+00) [K]
    Coulombic Fourier/kʙ   -1.254896e+04 (-1.254459e+04 +/- 0.000000e+00) [K]
    Molecule Intra/kʙ       0.000000e+00 ( 0.000000e+00 +/- 0.000000e+00) [K]

Current cycle: 1700 out of 5000
===============================================================================

Box:      25.92574   0.00000   0.00000  Average:  25.81982   0.00000   0.00000
           0.00000  25.92574   0.00000             0.00000  25.81982   0.00000
           0.00000   0.00000  25.92574             0.00000   0.00000  25.81982
Lengths:  25.92574  25.92574  25.92574  Average:  25.81982  25.81982  25.81982
Angles:   90.00000  90.00000  90.00000  Average:  90.00000  90.00000  90.00000
Rectangular boundary conditions

net charge:   0.00000000

component 0 (CO2) lambda:  0 occupancy:  1 (1.000000)
    net charge:   0.00000000 [e]

Amount of molecules per component :
-------------------------------------------------------------------------------
Component 0 (CO2)
    molecules:      2.500000e+02 molecules  (2.500000e+02 +/- 0.000000e+00)
    number density: 1.434651e-02 molec./A^3 (1.452821e-02 +/- 0.000000e+00)
    density:        1.048181e+03 kg/m^3     (1.061456e+03 +/- 0.000000e+00)

Average pressure tensor: 
-------------------------------------------------------------------------------
 4.1460e+01  1.4614e+01  4.9647e+01 +/- 0.0000e+00 0.0000e+00 0.0000e+00 [bar]
 1.4614e+01  6.8563e+01 -3.7943e+01 +/- 0.0000e+00 0.0000e+00 0.0000e+00 [bar]
 4.9647e+01 -3.7943e+01  9.7053e+01 +/- 0.0000e+00 0.0000e+00 0.0000e+00 [bar]
Ideal-gas pressure:   5.014594e+02 +/ 0.000000e+00 [bar]
Excess pressure:     -4.324343e+02 +/ 0.000000e+00 [bar]
Pressure:             6.902512e+01 +/ 0.000000e+00 [bar]

Total potential energy/kʙ  -3.822192e+05 (-3.828240e+05 +/- 0.000000e+00) [K]
-------------------------------------------------------------------------------
ExternalField-molecule
    Van der Waals/kʙ        0.000000e+00 ( 0.000000e+00 +/- 0.000000e+00) [K]
Framework-molecule
    Van der Waals/kʙ        0.000000e+00 ( 0.000000e+00 +/- 0.000000e+00) [K]
    Van der Waals (Tail)/kʙ 0.000000e+00 ( 0.000000e+00 +/- 0.000000e+00) [K]
    Coulombic Real/kʙ       0.000000e+00 ( 0.000000e+00 +/- 0.000000e+00) [K]
    Coulombic Fourier/kʙ    0.000000e+00 ( 0.000000e+00 +/- 0.000000e+00) [K]
Molecule-molecule
    Van der Waals/kʙ       -2.710590e+05 (-2.753258e+05 +/- 0.000000e+00) [K]
    Van der Waals (Tail)/kʙ-8.646965e+03 (-8.755249e+03 +/- 0.000000e+00) [K]
    Coulombic Real/kʙ      -9.035377e+04 (-8.619898e+04 +/- 0.000000e+00) [K]
    Coulombic Fourier/kʙ   -1.215943e+04 (-1.254401e+04 +/- 0.000000e+00) [K]
    Molecule Intra/kʙ       0.000000e+00 ( 0.000000e+00 +/- 0.000000e+00) [K]

Current cycle: 1800 out of 5000
===============================================================================

Box:      25.72529   0.00000   0.00000  Average:  25.81531   0.00000   0.00000
           0.00000  25.72529   0.00000             0.00000  25.81531   0.00000
           0.00000   0.00000  25.72529             0.00000   0.00000  25.81531
Lengths:  25.72529  25.72529  25.72529  Average:  25.81531  25.81531  25.81531
Angles:   90.00000  90.00000  90.00000  Average:  90.00000  90.00000  90.00000
Rectangular boundary conditions

net charge:   0.00000000

component 0 (CO2) lambda:  0 occupancy:  1 (1.000000)
    net charge:   0.00000000 [e]

Amount of molecules per component :
-------------------------------------------------------------------------------
Component 0 (CO2)
    molecules:      2.500000e+02 molecules  (2.500000e+02 +/- 0.000000e+00)
    number density: 1.468449e-02 molec./A^3 (1.453576e-02 +/- 0.000000e+00)
    density:        1.072874e+03 kg/m^3     (1.062008e+03 +/- 0.000000e+00)

Average pressure tensor: 
-------------------------------------------------------------------------------
 4.6856e+01  1.9151e+01  5.6511e+01 +/- 0.0000e+00 0.0000e+00 0.0000e+00 [bar]
 1.9151e+01  6.8899e+01 -3.5436e+01 +/- 0.0000e+00 0.0000e+00 0.0000e+00 [bar]
 5.6511e+01 -3.5436e+01  1.0491e+02 +/- 0.0000e+00 0.0000e+00 0.0000e+00 [bar]
Ideal-gas pressure:   5.017201e+02 +/ 0.000000e+00 [bar]
Excess pressure:     -4.281666e+02 +/ 0.000000e+00 [bar]
Pressure:             7.355344e+01 +/ 0.000000e+00 [bar]

Total potential energy/kʙ  -3.824881e+05 (-3.830871e+05 +/- 0.000000e+00) [K]
-------------------------------------------------------------------------------
ExternalField-molecule
    Van der Waals/kʙ        0.000000e+00 ( 0.000000e+00 +/- 0.000000e+00) [K]
Framework-molecule
    Van der Waals/kʙ        0.000000e+00 ( 0.000000e+00 +/- 0.000000e+00) [K]
    Van der Waals (Tail)/kʙ 0.000000e+00 ( 0.000000e+00 +/- 0.000000e+00) [K]
    Coulombic Real/kʙ       0.000000e+00 ( 0.000000e+00 +/- 0.000000e+00) [K]
    Coulombic Fourier/kʙ    0.000000e+00 ( 0.000000e+00 +/- 0.000000e+00) [K]
Molecule-molecule
    Van der Waals/kʙ       -2.772324e+05 (-2.754166e+05 +/- 0.000000e+00) [K]
    Van der Waals (Tail)/kʙ-8.850673e+03 (-8.760769e+03 +/- 0.000000e+00) [K]
    Coulombic Real/kʙ      -8.386836e+04 (-8.632881e+04 +/- 0.000000e+00) [K]
    Coulombic Fourier/kʙ   -1.253660e+04 (-1.258094e+04 +/- 0.000000e+00) [K]
    Molecule Intra/kʙ       0.000000e+00 ( 0.000000e+00 +/- 0.000000e+00) [K]

Current cycle: 1900 out of 5000
===============================================================================

Box:      25.97666   0.00000   0.00000  Average:  25.81418   0.00000   0.00000
           0.00000  25.97666   0.00000             0.00000  25.81418   0.00000
           0.00000   0.00000  25.97666             0.00000   0.00000  25.81418
Lengths:  25.97666  25.97666  25.97666  Average:  25.81418  25.81418  25.81418
Angles:   90.00000  90.00000  90.00000  Average:  90.00000  90.00000  90.00000
Rectangular boundary conditions

net charge:   0.00000000

component 0 (CO2) lambda:  0 occupancy:  1 (1.000000)
    net charge:   0.00000000 [e]

Amount of molecules per component :
-------------------------------------------------------------------------------
Component 0 (CO2)
    molecules:      2.500000e+02 molecules  (2.500000e+02 +/- 0.000000e+00)
    number density: 1.426232e-02 molec./A^3 (1.453751e-02 +/- 0.000000e+00)
    density:        1.042029e+03 kg/m^3     (1.062135e+03 +/- 0.000000e+00)

Average pressure tensor: 
-------------------------------------------------------------------------------
 5.4161e+01  2.7424e+01  5.0822e+01 +/- 0.0000e+00 0.0000e+00 0.0000e+00 [bar]
 2.7424e+01  6.0463e+01 -3.5724e+01 +/- 0.0000e+00 0.0000e+00 0.0000e+00 [bar]
 5.0822e+01 -3.5724e+01  1.0087e+02 +/- 0.0000e+00 0.0000e+00 0.0000e+00 [bar]
Ideal-gas pressure:   5.017803e+02 +/ 0.000000e+00 [bar]
Excess pressure:     -4.299496e+02 +/ 0.000000e+00 [bar]
Pressure:             7.183073e+01 +/ 0.000000e+00 [bar]

Total potential energy/kʙ  -3.737753e+05 (-3.829160e+05 +/- 0.000000e+00) [K]
-------------------------------------------------------------------------------
ExternalField-molecule
    Van der Waals/kʙ        0.000000e+00 ( 0.000000e+00 +/- 0.000000e+00) [K]
Framework-molecule
    Van der Waals/kʙ        0.000000e+00 ( 0.000000e+00 +/- 0.000000e+00) [K]
    Van der Waals (Tail)/kʙ 0.000000e+00 ( 0.000000e+00 +/- 0.000000e+00) [K]
    Coulombic Real/kʙ       0.000000e+00 ( 0.000000e+00 +/- 0.000000e+00) [K]
    Coulombic Fourier/kʙ    0.000000e+00 ( 0.000000e+00 +/- 0.000000e+00) [K]
Molecule-molecule
    Van der Waals/kʙ       -2.709785e+05 (-2.754721e+05 +/- 0.000000e+00) [K]
    Van der Waals (Tail)/kʙ-8.596216e+03 (-8.759935e+03 +/- 0.000000e+00) [K]
    Coulombic Real/kʙ      -8.151872e+04 (-8.610018e+04 +/- 0.000000e+00) [K]
    Coulombic Fourier/kʙ   -1.268186e+04 (-1.258384e+04 +/- 0.000000e+00) [K]
    Molecule Intra/kʙ       0.000000e+00 ( 0.000000e+00 +/- 0.000000e+00) [K]

Current cycle: 2000 out of 5000
===============================================================================

Box:      25.60047   0.00000   0.00000  Average:  25.80944   0.00000   0.00000
           0.00000  25.60047   0.00000             0.00000  25.80944   0.00000
           0.00000   0.00000  25.60047             0.00000   0.00000  25.80944
Lengths:  25.60047  25.60047  25.60047  Average:  25.80944  25.80944  25.80944
Angles:   90.00000  90.00000  90.00000  Average:  90.00000  90.00000  90.00000
Rectangular boundary conditions

net charge:   0.00000000

component 0 (CO2) lambda:  0 occupancy:  1 (1.000000)
    net charge:   0.00000000 [e]

Amount of molecules per component :
-------------------------------------------------------------------------------
Component 0 (CO2)
    molecules:      2.500000e+02 molecules  (2.500000e+02 +/- 0.000000e+00)
    number density: 1.490034e-02 molec./A^3 (1.454547e-02 +/- 0.000000e+00)
    density:        1.088644e+03 kg/m^3     (1.062717e+03 +/- 0.000000e+00)

Average pressure tensor: 
-------------------------------------------------------------------------------
 5.3193e+01  2.9675e+01  5.2055e+01 +/- 0.0000e+00 0.0000e+00 0.0000e+00 [bar]
 2.9675e+01  6.5062e+01 -3.3715e+01 +/- 0.0000e+00 0.0000e+00 0.0000e+00 [bar]
 5.2055e+01 -3.3715e+01  8.6165e+01 +/- 0.0000e+00 0.0000e+00 0.0000e+00 [bar]
Ideal-gas pressure:   5.020551e+02 +/ 0.000000e+00 [bar]
Excess pressure:     -4.339149e+02 +/ 0.000000e+00 [bar]
Pressure:             6.814015e+01 +/ 0.000000e+00 [bar]

Total potential energy/kʙ  -3.961596e+05 (-3.830312e+05 +/- 0.000000e+00) [K]
-------------------------------------------------------------------------------
ExternalField-molecule
    Van der Waals/kʙ        0.000000e+00 ( 0.000000e+00 +/- 0.000000e+00) [K]
Framework-molecule
    Van der Waals/kʙ        0.000000e+00 ( 0.000000e+00 +/- 0.000000e+00) [K]
    Van der Waals (Tail)/kʙ 0.000000e+00 ( 0.000000e+00 +/- 0.000000e+00) [K]
    Coulombic Real/kʙ       0.000000e+00 ( 0.000000e+00 +/- 0.000000e+00) [K]
    Coulombic Fourier/kʙ    0.000000e+00 ( 0.000000e+00 +/- 0.000000e+00) [K]
Molecule-molecule
    Van der Waals/kʙ       -2.875392e+05 (-2.756785e+05 +/- 0.000000e+00) [K]
    Van der Waals (Tail)/kʙ-8.980768e+03 (-8.764500e+03 +/- 0.000000e+00) [K]
    Coulombic Real/kʙ      -8.654951e+04 (-8.599143e+04 +/- 0.000000e+00) [K]
    Coulombic Fourier/kʙ   -1.309020e+04 (-1.259673e+04 +/- 0.000000e+00) [K]
    Molecule Intra/kʙ       0.000000e+00 ( 0.000000e+00 +/- 0.000000e+00) [K]

Current cycle: 2100 out of 5000
===============================================================================

Box:      25.50037   0.00000   0.00000  Average:  25.80519   0.00000   0.00000
           0.00000  25.50037   0.00000             0.00000  25.80519   0.00000
           0.00000   0.00000  25.50037             0.00000   0.00000  25.80519
Lengths:  25.50037  25.50037  25.50037  Average:  25.80519  25.80519  25.80519
Angles:   90.00000  90.00000  90.00000  Average:  90.00000  90.00000  90.00000
Rectangular boundary conditions

net charge:   0.00000000

component 0 (CO2) lambda:  0 occupancy:  1 (1.000000)
    net charge:   0.00000000 [e]

Amount of molecules per component :
-------------------------------------------------------------------------------
Component 0 (CO2)
    molecules:      2.500000e+02 molecules  (2.500000e+02 +/- 0.000000e+00)
    number density: 1.507651e-02 molec./A^3 (1.455256e-02 +/- 0.000000e+00)
    density:        1.101515e+03 kg/m^3     (1.063235e+03 +/- 0.000000e+00)

Average pressure tensor: 
-------------------------------------------------------------------------------
 5.5772e+01  3.5093e+01  5.0782e+01 +/- 0.0000e+00 0.0000e+00 0.0000e+00 [bar]
 3.5093e+01  6.4377e+01 -3.0672e+01 +/- 0.0000e+00 0.0000e+00 0.0000e+00 [bar]
 5.0782e+01 -3.0672e+01  8.4278e+01 +/- 0.0000e+00 0.0000e+00 0.0000e+00 [bar]
Ideal-gas pressure:   5.023001e+02 +/ 0.000000e+00 [bar]
Excess pressure:     -4.341577e+02 +/ 0.000000e+00 [bar]
Pressure:             6.814237e+01 +/ 0.000000e+00 [bar]

Total potential energy/kʙ  -3.899367e+05 (-3.831307e+05 +/- 0.000000e+00) [K]
-------------------------------------------------------------------------------
ExternalField-molecule
    Van der Waals/kʙ        0.000000e+00 ( 0.000000e+00 +/- 0.000000e+00) [K]
Framework-molecule
    Van der Waals/kʙ        0.000000e+00 ( 0.000000e+00 +/- 0.000000e+00) [K]
    Van der Waals (Tail)/kʙ 0.000000e+00 ( 0.000000e+00 +/- 0.000000e+00) [K]
[...]
    Coulombic Fourier/kʙ    0.000000e+00 ( 0.000000e+00 +/- 0.000000e+00) [K]
Molecule-molecule
    Van der Waals/kʙ       -2.899952e+05 (-2.767850e+05 +/- 3.287379e+03) [K]
    Van der Waals (Tail)/kʙ-9.183765e+03 (-8.805925e+03 +/- 8.933312e+01) [K]
    Coulombic Real/kʙ      -9.089374e+04 (-8.636290e+04 +/- 2.239723e+03) [K]
    Coulombic Fourier/kʙ   -1.359417e+04 (-1.275922e+04 +/- 2.154772e+02) [K]
    Molecule Intra/kʙ       0.000000e+00 ( 0.000000e+00 +/- 0.000000e+00) [K]

Current cycle: 4700 out of 5000
===============================================================================

Box:      25.61968   0.00000   0.00000  Average:  25.76446   0.00000   0.00000
           0.00000  25.61968   0.00000             0.00000  25.76446   0.00000
           0.00000   0.00000  25.61968             0.00000   0.00000  25.76446
Lengths:  25.61968  25.61968  25.61968  Average:  25.76446  25.76446  25.76446
Angles:   90.00000  90.00000  90.00000  Average:  90.00000  90.00000  90.00000
Rectangular boundary conditions

net charge:   0.00000000

component 0 (CO2) lambda:  0 occupancy:  1 (1.000000)
    net charge:   0.00000000 [e]

Amount of molecules per component :
-------------------------------------------------------------------------------
Component 0 (CO2)
    molecules:      2.500000e+02 molecules  (2.500000e+02 +/- 3.944933e-14)
    number density: 1.486686e-02 molec./A^3 (1.462163e-02 +/- 1.656522e-04)
    density:        1.086198e+03 kg/m^3     (1.068281e+03 +/- 1.210283e+01)

Average pressure tensor: 
-------------------------------------------------------------------------------
 9.1492e+01 -6.8290e+00  2.9128e+01 +/- 6.0007e+01 6.3239e+01 3.8320e+01 [bar]
-6.8290e+00  7.0997e+01 -1.5391e+00 +/- 6.3239e+01 8.0475e+01 4.9243e+01 [bar]
 2.9128e+01 -1.5391e+00  9.1439e+01 +/- 3.8320e+01 4.9243e+01 4.4061e+01 [bar]
Ideal-gas pressure:   5.046838e+02 +/ 5.717694e+00 [bar]
Excess pressure:     -4.200411e+02 +/ 3.374479e+01 [bar]
Pressure:             8.464272e+01 +/ 3.335704e+01 [bar]

Total potential energy/kʙ  -3.845619e+05 (-3.848923e+05 +/- 5.252136e+03) [K]
-------------------------------------------------------------------------------
ExternalField-molecule
    Van der Waals/kʙ        0.000000e+00 ( 0.000000e+00 +/- 0.000000e+00) [K]
Framework-molecule
    Van der Waals/kʙ        0.000000e+00 ( 0.000000e+00 +/- 0.000000e+00) [K]
    Van der Waals (Tail)/kʙ 0.000000e+00 ( 0.000000e+00 +/- 0.000000e+00) [K]
    Coulombic Real/kʙ       0.000000e+00 ( 0.000000e+00 +/- 0.000000e+00) [K]
    Coulombic Fourier/kʙ    0.000000e+00 ( 0.000000e+00 +/- 0.000000e+00) [K]
Molecule-molecule
    Van der Waals/kʙ       -2.782294e+05 (-2.769370e+05 +/- 3.437260e+03) [K]
    Van der Waals (Tail)/kʙ-8.960587e+03 (-8.810285e+03 +/- 9.460746e+01) [K]
    Coulombic Real/kʙ      -8.382861e+04 (-8.636850e+04 +/- 2.143203e+03) [K]
    Coulombic Fourier/kʙ   -1.354328e+04 (-1.277648e+04 +/- 2.444965e+02) [K]
    Molecule Intra/kʙ       0.000000e+00 ( 0.000000e+00 +/- 0.000000e+00) [K]

Current cycle: 4800 out of 5000
===============================================================================

Box:      25.53843   0.00000   0.00000  Average:  25.76014   0.00000   0.00000
           0.00000  25.53843   0.00000             0.00000  25.76014   0.00000
           0.00000   0.00000  25.53843             0.00000   0.00000  25.76014
Lengths:  25.53843  25.53843  25.53843  Average:  25.76014  25.76014  25.76014
Angles:   90.00000  90.00000  90.00000  Average:  90.00000  90.00000  90.00000
Rectangular boundary conditions

net charge:   0.00000000

component 0 (CO2) lambda:  0 occupancy:  1 (1.000000)
    net charge:   0.00000000 [e]

Amount of molecules per component :
-------------------------------------------------------------------------------
Component 0 (CO2)
    molecules:      2.500000e+02 molecules  (2.500000e+02 +/- 0.000000e+00)
    number density: 1.500919e-02 molec./A^3 (1.462905e-02 +/- 1.727777e-04)
    density:        1.096597e+03 kg/m^3     (1.068823e+03 +/- 1.262343e+01)

Average pressure tensor: 
-------------------------------------------------------------------------------
 9.5775e+01 -5.4294e+00  2.9371e+01 +/- 6.2130e+01 6.3659e+01 3.6809e+01 [bar]
-5.4294e+00  7.2229e+01 -4.3096e+00 +/- 6.3659e+01 7.0292e+01 3.9201e+01 [bar]
 2.9371e+01 -4.3096e+00  9.2373e+01 +/- 3.6809e+01 3.9201e+01 4.2657e+01 [bar]
Ideal-gas pressure:   5.049400e+02 +/ 5.963638e+00 [bar]
Excess pressure:     -4.181477e+02 +/ 3.123761e+01 [bar]
Pressure:             8.679226e+01 +/ 3.216495e+01 [bar]

Total potential energy/kʙ  -4.022530e+05 (-3.852172e+05 +/- 5.761105e+03) [K]
-------------------------------------------------------------------------------
ExternalField-molecule
    Van der Waals/kʙ        0.000000e+00 ( 0.000000e+00 +/- 0.000000e+00) [K]
Framework-molecule
    Van der Waals/kʙ        0.000000e+00 ( 0.000000e+00 +/- 0.000000e+00) [K]
    Van der Waals (Tail)/kʙ 0.000000e+00 ( 0.000000e+00 +/- 0.000000e+00) [K]
    Coulombic Real/kʙ       0.000000e+00 ( 0.000000e+00 +/- 0.000000e+00) [K]
    Coulombic Fourier/kʙ    0.000000e+00 ( 0.000000e+00 +/- 0.000000e+00) [K]
Molecule-molecule
    Van der Waals/kʙ       -2.875312e+05 (-2.771441e+05 +/- 3.749820e+03) [K]
    Van der Waals (Tail)/kʙ-9.046376e+03 (-8.815281e+03 +/- 1.011258e+02) [K]
    Coulombic Real/kʙ      -9.266846e+04 (-8.647244e+04 +/- 2.270619e+03) [K]
    Coulombic Fourier/kʙ   -1.300691e+04 (-1.278545e+04 +/- 2.527444e+02) [K]
    Molecule Intra/kʙ       0.000000e+00 ( 0.000000e+00 +/- 0.000000e+00) [K]

Current cycle: 4900 out of 5000
===============================================================================

Box:      25.86751   0.00000   0.00000  Average:  25.76168   0.00000   0.00000
           0.00000  25.86751   0.00000             0.00000  25.76168   0.00000
           0.00000   0.00000  25.86751             0.00000   0.00000  25.76168
Lengths:  25.86751  25.86751  25.86751  Average:  25.76168  25.76168  25.76168
Angles:   90.00000  90.00000  90.00000  Average:  90.00000  90.00000  90.00000
Rectangular boundary conditions

net charge:   0.00000000

component 0 (CO2) lambda:  0 occupancy:  1 (1.000000)
    net charge:   0.00000000 [e]

Amount of molecules per component :
-------------------------------------------------------------------------------
Component 0 (CO2)
    molecules:      2.500000e+02 molecules  (2.500000e+02 +/- 0.000000e+00)
    number density: 1.444363e-02 molec./A^3 (1.462641e-02 +/- 1.506464e-04)
    density:        1.055276e+03 kg/m^3     (1.068631e+03 +/- 1.100648e+01)

Average pressure tensor: 
-------------------------------------------------------------------------------
 9.3919e+01 -6.6829e+00  2.8157e+01 +/- 6.0653e+01 6.3215e+01 3.7804e+01 [bar]
-6.6829e+00  7.2511e+01 -4.8544e+00 +/- 6.3215e+01 6.5043e+01 3.6630e+01 [bar]
 2.8157e+01 -4.8544e+00  8.9747e+01 +/- 3.7804e+01 3.6630e+01 3.1815e+01 [bar]
Ideal-gas pressure:   5.048489e+02 +/ 5.199748e+00 [bar]
Excess pressure:     -4.194566e+02 +/ 3.208931e+01 [bar]
Pressure:             8.539230e+01 +/ 3.252445e+01 [bar]

Total potential energy/kʙ  -3.775744e+05 (-3.851476e+05 +/- 5.096955e+03) [K]
-------------------------------------------------------------------------------
ExternalField-molecule
    Van der Waals/kʙ        0.000000e+00 ( 0.000000e+00 +/- 0.000000e+00) [K]
Framework-molecule
    Van der Waals/kʙ        0.000000e+00 ( 0.000000e+00 +/- 0.000000e+00) [K]
    Van der Waals (Tail)/kʙ 0.000000e+00 ( 0.000000e+00 +/- 0.000000e+00) [K]
    Coulombic Real/kʙ       0.000000e+00 ( 0.000000e+00 +/- 0.000000e+00) [K]
    Coulombic Fourier/kʙ    0.000000e+00 ( 0.000000e+00 +/- 0.000000e+00) [K]
Molecule-molecule
    Van der Waals/kʙ       -2.719997e+05 (-2.770830e+05 +/- 3.232860e+03) [K]
    Van der Waals (Tail)/kʙ-8.705497e+03 (-8.813398e+03 +/- 8.779058e+01) [K]
    Coulombic Real/kʙ      -8.422604e+04 (-8.645993e+04 +/- 2.163306e+03) [K]
    Coulombic Fourier/kʙ   -1.264320e+04 (-1.279131e+04 +/- 2.538382e+02) [K]
    Molecule Intra/kʙ       0.000000e+00 ( 0.000000e+00 +/- 0.000000e+00) [K]


Energy statistics             |  Energy [K]   | Recomputed [K]|  Drift [K]    |
===============================================================================
Total potential energy/kʙ     | -3.876707e+05 | -3.876707e+05 | -3.456634e-10 |
    external field VDW/kʙ     |  0.000000e+00 |  0.000000e+00 |  0.000000e+00 |
    external field Real/kʙ    |  0.000000e+00 |  0.000000e+00 |  0.000000e+00 |
    framework-molecule VDW/kʙ |  0.000000e+00 |  0.000000e+00 |  0.000000e+00 |
    framework-molecule Real/kʙ|  0.000000e+00 |  0.000000e+00 |  0.000000e+00 |
    molecule-molecule VDW/kʙ  | -2.806569e+05 | -2.806569e+05 | -5.600621e-10 |
    molecule-molecule Real/kʙ | -8.427442e+04 | -8.427442e+04 |  2.100233e-10 |
    Van der Waals (Tail)/kʙ   | -8.937690e+03 | -8.937690e+03 |  0.000000e+00 |
    Ewald Fourier/kʙ          |  8.889633e+03 |  8.889633e+03 |  4.375485e-12 |
    Ewald self/kʙ             | -5.029674e+06 | -5.029674e+06 |  0.000000e+00 |
    Ewald exclusion/kʙ        |  5.006983e+06 |  5.006983e+06 |  0.000000e+00 |
    intra VDW/kʙ              |  0.000000e+00 |  0.000000e+00 |  0.000000e+00 |
    intra Coulombic/kʙ        |  0.000000e+00 |  0.000000e+00 |  0.000000e+00 |
    polarization/kʙ           |  0.000000e+00 |  0.000000e+00 |  0.000000e+00 |
    dU/dlambda VDW/kʙ         |  0.000000e+00 |  0.000000e+00 |  0.000000e+00 |
    dU/dlambda Real/kʙ        |  0.000000e+00 |  0.000000e+00 |  0.000000e+00 |
    dU/dlambda Ewald/kʙ       |  0.000000e+00 |  0.000000e+00 |  0.000000e+00 |
-------------------------------------------------------------------------------


Monte-Carlo moves statistics
===============================================================================

    Volume change        all:                8231
    Volume change        total:              8231
    Volume change        constructed:        8231
    Volume change        accepted:           3193
    Volume change        fraction:       0.387924
    Volume change        max-change:     0.033333

Component 0 [CO2]
    Reinsertion (CBMC)   all:              413767
    Reinsertion (CBMC)   total:            413767
    Reinsertion (CBMC)   constructed:      365594
    Reinsertion (CBMC)   accepted:           5014
    Reinsertion (CBMC)   fraction:       0.012118
    Reinsertion (CBMC)   max-change:     0.000000

    Translation          all:              413523
    Translation          total:            138097     137942     137484
    Translation          constructed:      138097     137942     137484
    Translation          accepted:          61032      60385      64101
    Translation          fraction:       0.441950   0.437756   0.466243
    Translation          max-change:     0.785714   0.800000   0.727273

    Rotation             all:              414479
    Rotation             total:            138270     138185     138024
    Rotation             constructed:      138270     138185     138024
    Rotation             accepted:          71069      73802      80997
    Rotation             fraction:       0.513987   0.534081   0.586833
    Rotation             max-change:     0.643902   0.621714   0.516129



Production run counting of the MC moves summed over systems and components
===============================================================================

Volume change                          8231 (0.6585 [%])
Reinsertion (CBMC)                   413767 (33.1014 [%])
Translation                          413523 (33.0818 [%])
Rotation                             414479 (33.1583 [%])

Production count MC-steps:          1250000 [-]
               All summed:          1250000 [-]
               difference:                0 [-]


Production run CPU timings of the MC moves
===============================================================================

Component 0 CO2

Rotation                             61.035383 [s]
    Ewald                            23.453289 [s]
    ExternalField-Molecule            0.015276 [s]
    Framework-Molecule                0.012971 [s]
    Molecule-Molecule                35.437057 [s]
    Overhead                          2.116790 [s]

Reinsertion (CBMC)                  255.523710 [s]
    Ewald                            20.768591 [s]
    NonEwald                        234.339314 [s]
    Overhead                          0.415805 [s]

Translation                          60.761817 [s]
    Ewald                            23.402013 [s]
    ExternalField-Molecule            0.012845 [s]
    Framework-Molecule                0.024983 [s]
    Molecule-Molecule                35.514458 [s]
    Overhead                          1.807518 [s]



Volume change                         70.480733 [s]
    Ewald                             23.322641 [s]
    NonEwald                          43.650697 [s]
    Tail                               3.197444 [s]

Property sampling                     0.301286 [s]
Energy/pressure sampling:             8.333913 [s]


Production run CPU timings of the MC moves summed over systems and components
===============================================================================


Translation                          60.761817 [s]
    Ewald                            23.402013 [s]
    ExternalField-Molecule            0.012845 [s]
    Framework-Molecule                0.024983 [s]
    Molecule-Molecule                35.514458 [s]
    Overhead                          1.807518 [s]

Rotation                             61.035383 [s]
    Ewald                            23.453289 [s]
    ExternalField-Molecule            0.015276 [s]
    Framework-Molecule                0.012971 [s]
    Molecule-Molecule                35.437057 [s]
    Overhead                          2.116790 [s]

Volume change                        70.480733 [s]
    Ewald                            23.322641 [s]
    NonEwald                         43.650697 [s]
    Tail                              3.197444 [s]
    Overhead                          0.309951 [s]

Reinsertion (CBMC)                  255.523710 [s]
    Ewald                            20.768591 [s]
    NonEwald                        234.339314 [s]
    Overhead                          0.415805 [s]

Property sampling:                    0.301286 [s]
Energy/pressure sampling:             8.333913 [s]

Production simulation time:         457.384142 [s]
                All summed:         456.436842 [s]
                  Overhead:           0.947300 [s]


Initalization simulation time:       87.740879 [s]
Equilibration simulation time:        0.000000 [s]
Production simulation time:         457.384142 [s]
Total simulation time:              545.125021 [s]


Energy averages and statistics:
===============================================================================

Framework-molecule energy:
-------------------------------------------------------------------------------



Framework-molecule energy contributions per energy type:
-------------------------------------------------------------------------------



Inter-molecular energy:
-------------------------------------------------------------------------------

    Inter-molecular energy/kʙ 0-0 [CO2-CO2]:
    ---------------------------------------------------------------------------
        Block[  0] -3.822412e+05
        Block[  1] -3.836899e+05
        Block[  2] -3.861723e+05
        Block[  3] -3.822295e+05
        Block[  4] -3.912479e+05
        -----------------------------------------------------------------------
        Average  -3.851162e+05 +/-  4.700628e+03 [K]



Inter-molecular energy contributions per energy type:
-------------------------------------------------------------------------------

    Van der Waals energy/kʙ 0-0 [CO2-CO2]:
    ---------------------------------------------------------------------------
        Block[  0] -2.750746e+05
        Block[  1] -2.761638e+05
        Block[  2] -2.763617e+05
        Block[  3] -2.765211e+05
        Block[  4] -2.811688e+05
        -----------------------------------------------------------------------
        Average  -2.770580e+05 +/-  2.938159e+03 [K]

    VDW Tail-Correction energy/kʙ 0-0 [CO2-CO2]:
    ---------------------------------------------------------------------------
        Block[  0] -8.742548e+03
        Block[  1] -8.784290e+03
        Block[  2] -8.824474e+03
        Block[  3] -8.795761e+03
        Block[  4] -8.919300e+03
        -----------------------------------------------------------------------
        Average  -8.813275e+03 +/-  8.215252e+01 [K]

    Coulomb Real energy/kʙ 0-0 [CO2-CO2]:
    ---------------------------------------------------------------------------
        Block[  0] -8.588567e+04
        Block[  1] -8.609162e+04
        Block[  2] -8.805704e+04
        Block[  3] -8.409454e+04
        Block[  4] -8.810652e+04
        -----------------------------------------------------------------------
        Average  -8.644708e+04 +/-  2.088622e+03 [K]

    Coulomb Fourier energy/kʙ 0-0 [CO2-CO2]:
    ---------------------------------------------------------------------------
        Block[  0] -1.253834e+04
        Block[  1] -1.265019e+04
        Block[  2] -1.292900e+04
        Block[  3] -1.281816e+04
        Block[  4] -1.305332e+04
        -----------------------------------------------------------------------
        Average  -1.279780e+04 +/-  2.574565e+02 [K]


Total energy/kʙ
-------------------------------------------------------------------------------
    Block[  0] -3.822412e+05
    Block[  1] -3.836899e+05
    Block[  2] -3.861723e+05
    Block[  3] -3.822295e+05
    Block[  4] -3.912479e+05
    ---------------------------------------------------------------------------
    Average  -3.851162e+05 +/-  4.700628e+03 [K]

Pressure averages and statistics:
===============================================================================

Average pressure tensor: 
-------------------------------------------------------------------------------
 9.8746e+01 -4.5698e+00  2.6546e+01 +/- 6.3792e+01 6.3794e+01 3.9360e+01 [bar]
-4.5698e+00  7.1210e+01 -3.2517e+00 +/- 6.3794e+01 6.4527e+01 3.8279e+01 [bar]
 2.6546e+01 -3.2517e+00  8.9644e+01 +/- 3.9360e+01 3.8279e+01 2.9503e+01 [bar]

    Block[  0]  5.008682e+07
    Block[  1]  5.032297e+07
    Block[  2]  5.050328e+07
    Block[  3]  5.038512e+07
    Block[  4]  5.112891e+07
    ---------------------------------------------------------------------------
    Ideal gas pressure   5.048542e+07 +/-  2.918926e-02 [Pa]
                         5.048542e+02 +/-  4.846993e+00 [bar]


    Block[  0] -4.385400e+07
    Block[  1] -4.293105e+07
    Block[  2] -3.747479e+07
    Block[  3] -4.223634e+07
    Block[  4] -4.266434e+07
    ---------------------------------------------------------------------------
    Excess pressure  -4.183210e+07 +/-  3.112213e+06 [Pa]
                     -4.183210e+02 +/-  3.112213e+01 [bar]


    Block[  0]  6.232822e+06
    Block[  1]  7.391922e+06
    Block[  2]  1.302849e+07
    Block[  3]  8.148788e+06
    Block[  4]  8.464569e+06
    ---------------------------------------------------------------------------
    Pressure average   8.653318e+06 +/-  3.218377e+06 [Pa]
                       8.653318e+01 +/-  3.218377e+01 [bar]


Enthalpy of adsorption
===============================================================================

No fluctuating components present.


Densities
===============================================================================

Component 0 (CO2)
    Block[  0] 250
    Block[  1] 250
    Block[  2] 250
    Block[  3] 250
    Block[  4] 250
    -----------------------------------------------------------------------
    Density average   2.500000e+02 +/-  0.000000e+00 [molecules]
    Density average   1.462656e-02 +/-  1.404264e-04 [molec/A^3]
    Density average   1.068642e+03 +/-  1.025979e+01 [kg.m⁻³]

