Compiler and run-time data
===============================================================================
RASPA 3.0.4

Random seed: 3451915077

Compiled as a 64-bits application
Compiler: gcc Ubuntu Clang 18.1.3 (1ubuntu1)
Compile Date = Mar 15 2025, Compile Time = 19:39:45

2025-06-02 13:21:36.157818
Simulation started on Mon, Jun 02
The start time was 13:21:00

Hostname:    c061
OS type:     Linux on x86_64
OS release:  6.8.0-58-generic
OS version:  #60-Ubuntu SMP PREEMPT_DYNAMIC Fri Mar 14 18:29:48 UTC 2025


Mutual consistent basic set of units:
===============================================================================

Unit of temperature: 1 [K]
Unit of length:      1e-10 [m]
Unit of time:        1e-12 [s]
Unit of mass:        1.6605402e-27 [kg]
Unit of charge:      1.60217733e-19 [C/particle]


Boltzmann constant (internal units):          0.8314464919307584 [-]
represents conversion from energy (internal units) to temperature (in Kelvin)

Derived units and their conversion factors:
===============================================================================

Unit of energy:                           1.6605402000000002e-23 [J]
Unit of energy:                           10.000008872307538 [J.mol⁻¹]
Unit of velocity:                         100 [m.s⁻¹]
Unit of force:                            1.6605402000000002e-13 [N]
Unit of diffusion:                        1.0000000000000002e-08 [m².s⁻¹]
Unit of acceleration:                     1.0000000000000002e-08 [m².s⁻¹]
Unit of torque:                           1.6605402000000002e-23 [N.m]
Unit of pressure:                         16605402 [Pa]
Unit of volume:                           1e-30 [m³]
Unit of density:                          1660.5402 [kg.m⁻³]
Unit of dynamic viscosity:                1.6605401999999997e-05 [N.s.m⁻²]
Unit of enthalpy:                         1.6605402000000002e-23 [J]
Unit of polarizability:                   1.5458657349975198e-35 [-]
Unit of Coulomb potential:                167101.08000665612 [K]
Unit of dielectric constant:              1.5458657349975193e-05 [s².C².kg⁻¹.m⁻³]
Unit of dipole moment:                    1.60217733e-29 [C.m]
Unit of Debye:                            4.803206799099162 [C.m]
Unit of electric potential:               0.00010364272224473431 [V]
Unit of electric field:                   1036427.222447343 [V.m⁻¹]
Unit of isothermal compressibility:       6.02213665167516e-08 [Pa⁻¹]
Unit of heat capacity:                    10.000008872307538 [J.mol⁻¹.K⁻¹]
Unit of volumetric expansion coefficient: 1 [K⁻¹]


Internal conversion factors:
===============================================================================

Energy (internal units) to Kelvin:      1.202724284692786 [-]
Kelvin to energy (internal units):      0.8314457542157567 [-]


System definitions
===============================================================================

Temperature:          250 [K]
Beta:                 0.0048108928702210625 [-]
Pressure:             1.2e+07 [Pa]
Helium void fraction: 1 [-]

Box:      30.00000   0.00000   0.00000
           0.00000  30.00000   0.00000
           0.00000   0.00000  30.00000
Lengths:  30.00000  30.00000  30.00000
Angles:   90.00000  90.00000  90.00000
Rectangular boundary conditions



Property measurement settings
===============================================================================




Pseudo-atoms
===============================================================================

  0 - C_co2    framework-atom: false
  1 - O_co2    framework-atom: false

  0 - C_co2    mass: 12.00000, charge:  0.70000
  1 - O_co2    mass: 15.99940, charge: -0.35000

  0 - C_co2    polarizability:  0.00000
  1 - O_co2    polarizability:  0.00000

  0 - J. J. Potoff et al., AIChE J. 2001, 47, 1676–1682.
  1 - J. J. Potoff et al., AIChE J. 2001, 47, 1676–1682.

Force field status
===============================================================================

Cutoff Framework-Molecule VDW:  11.00000 [Å]
Cutoff Molecule-Molecule VDW:   11.00000 [Å]
Cutoff Coulomb:                 11.00000 [Å]

Overlap-criteria VDW:           1.000000e+05 [K]

C_co2    - C_co2    Lennard-Jones p₀/kʙ:  27.00000 [K], p₁:  2.80000 [Å]
                                  shift:   0.00000 [K], tailcorrections: true
C_co2    - O_co2    Lennard-Jones p₀/kʙ:  46.18441 [K], p₁:  2.92500 [Å]
                                  shift:   0.00000 [K], tailcorrections: true
O_co2    - O_co2    Lennard-Jones p₀/kʙ:  79.00000 [K], p₁:  3.05000 [Å]
                                  shift:   0.00000 [K], tailcorrections: true

Ewald precision: 1e-06
Ewald alpha: 0.2903408740940883
Ewald k-vectors: 9 9 9


Component definitions
===============================================================================

Component 0 [CO2]

    Type: Adsorbate

    Critical temperature:  304.1282 [K]
    Critical pressure:     7377300 [Pa]
    Acentric factor:       0.22394 [-]

    Mol-fraction:                 1 [-]
    Swappable:                   false

    Mass:                         43.9988 [-]
    Bulk fluid density:           0 [-]
    Compressibility:              0 [-]
    Excess molecules:             0 [-]

    Number Of Atoms:    3
    CBMC starting bead: 0
      0: O_co2  position  0.00000 -0.00000  1.16000, charge -0.35000
      1: C_co2  position  0.00000 -0.00000  0.00000, charge  0.70000
      2: O_co2  position  0.00000 -0.00000 -1.16000, charge -0.35000
    Diagonalized inertia-vector:      43.05758528 43.05758528 0.00000000
    Translational degrees of freedom: 3
    Rotational degrees of freedom:    2
    Shape of the molecule is: 'Linear'
    Net-charge:        0.00000000 [e]

    Move probabilities:
    Translation:                   0.331126 [-]
    Random translation:            0.000000 [-]
    Rotation:                      0.331126 [-]
    Random rotation:               0.000000 [-]
    Volume change:                 0.006623 [-]
    Reinsertion (CBMC):            0.331126 [-]
    Identity change (CBMC):        0.000000 [-]
    Swap:                          0.000000 [-]
    Swap (CBMC):                   0.000000 [-]
    Swap (CFCMC):                  0.000000 [-]
    Swap (CB/CFCMC):               0.000000 [-]
    Gibbs volume:                  0.000000 [-]
    Gibbs swap (CBMC):             0.000000 [-]
    Gibbs swap (CFCMC):            0.000000 [-]
    Widom:                         0.000000 [-]
    Widom (CFCMC):                 0.000000 [-]
    Widom (CB/CFCMC):              0.000000 [-]
    Parallel tempering:            0.000000 [-]
    Hybrid MC:                     0.000000 [-]

    number of blocking-pockets: 0

    number of bonds: 0





Number of pseudo-atoms
===============================================================================

Component   0 (CO2)
-------------------------------------------------------------------------------
    index   0 (C_co2): 200 atoms
    index   1 (O_co2): 400 atoms

Total number of pseudo-atoms:
-------------------------------------------------------------------------------
    index   0 (C_co2): 200 atoms
    index   1 (O_co2): 400 atoms




Energy status Recomputed from scratch
===============================================================================

Total potential energy/kʙ       -9.294310e+04 [K]
    external field VDW/kʙ        0.000000e+00 [K]
    external field Real/kʙ       0.000000e+00 [K]
    framework-molecule VDW/kʙ    0.000000e+00 [K]
    framework-molecule Real/kʙ   0.000000e+00 [K]
    molecule-molecule VDW/kʙ    -7.299079e+04 [K]
    molecule-molecule Real/kʙ   -1.449143e+04 [K]
    Van der Waals (Tail)/kʙ     -3.571688e+03 [K]
    Ewald Fourier/kʙ             1.626391e+04 [K]
    Ewald self/kʙ               -4.023739e+06 [K]
    Ewald exclusion/kʙ           4.005586e+06 [K]
    intra VDW/kʙ                 0.000000e+00 [K]
    intra Coulombic/kʙ           0.000000e+00 [K]
    polarization/kʙ              0.000000e+00 [K]
    dU/dlambda VDW/kʙ            0.000000e+00 [K]
    dU/dlambda Real/kʙ           0.000000e+00 [K]
    dU/dlambda Ewald/kʙ          0.000000e+00 [K]





Initialization: Current cycle: 0 out of 1000
===============================================================================

Box:      30.79940   0.00000   0.00000
           0.00000  30.79940   0.00000
           0.00000   0.00000  30.79940
Lengths:  30.79940  30.79940  30.79940
Angles:   90.00000  90.00000  90.00000
Rectangular boundary conditions

net charge:   0.00000000

component   0 (CO2) lambda:  0 occupancy:  1 (1.000000)
    net charge:   0.00000000 [e]

Amount of molecules per component :
-------------------------------------------------------------------------------
Component 0 (CO2)
    molecules:         2.000000e+02 molecules
    number density:    6.845471e-03 molec/A^3
    density:           5.001418e+02 kg/m^3

Total potential energy/kʙ       -1.244425e+05 [K]
-------------------------------------------------------------------------------
    external field VDW/kʙ        0.000000e+00 [K]
    external field Real/kʙ       0.000000e+00 [K]
    framework-molecule VDW/kʙ    0.000000e+00 [K]
    framework-molecule Real/kʙ   0.000000e+00 [K]
    molecule-molecule VDW/kʙ    -1.036387e+05 [K]
    molecule-molecule Real/kʙ   -1.407185e+04 [K]
    Van der Waals (Tail)/kʙ     -3.300735e+03 [K]
    Ewald Fourier/kʙ             1.472187e+04 [K]
    Ewald self/kʙ               -4.023739e+06 [K]
    Ewald exclusion/kʙ           4.005586e+06 [K]
    intra VDW/kʙ                 0.000000e+00 [K]
    intra Coulombic/kʙ           0.000000e+00 [K]
    polarization/kʙ              0.000000e+00 [K]
    dU/dlambda VDW/kʙ            0.000000e+00 [K]
    dU/dlambda Real/kʙ           0.000000e+00 [K]
    dU/dlambda Ewald/kʙ          0.000000e+00 [K]


Initialization: Current cycle: 100 out of 1000
===============================================================================

Box:      27.62501   0.00000   0.00000
           0.00000  27.62501   0.00000
           0.00000   0.00000  27.62501
Lengths:  27.62501  27.62501  27.62501
Angles:   90.00000  90.00000  90.00000
Rectangular boundary conditions

net charge:   0.00000000

component   0 (CO2) lambda:  0 occupancy:  1 (1.000000)
    net charge:   0.00000000 [e]

Amount of molecules per component :
-------------------------------------------------------------------------------
Component 0 (CO2)
    molecules:         2.000000e+02 molecules
    number density:    9.486864e-03 molec/A^3
    density:           6.931265e+02 kg/m^3

Total potential energy/kʙ       -2.249247e+05 [K]
-------------------------------------------------------------------------------
    external field VDW/kʙ        0.000000e+00 [K]
    external field Real/kʙ       0.000000e+00 [K]
    framework-molecule VDW/kʙ    0.000000e+00 [K]
    framework-molecule Real/kʙ   0.000000e+00 [K]
    molecule-molecule VDW/kʙ    -1.635937e+05 [K]
    molecule-molecule Real/kʙ   -4.960638e+04 [K]
    Van der Waals (Tail)/kʙ     -4.574356e+03 [K]
    Ewald Fourier/kʙ             1.100283e+04 [K]
    Ewald self/kʙ               -4.023739e+06 [K]
    Ewald exclusion/kʙ           4.005586e+06 [K]
    intra VDW/kʙ                 0.000000e+00 [K]
    intra Coulombic/kʙ           0.000000e+00 [K]
    polarization/kʙ              0.000000e+00 [K]
    dU/dlambda VDW/kʙ            0.000000e+00 [K]
    dU/dlambda Real/kʙ           0.000000e+00 [K]
    dU/dlambda Ewald/kʙ          0.000000e+00 [K]


Initialization: Current cycle: 200 out of 1000
===============================================================================

Box:      26.81821   0.00000   0.00000
           0.00000  26.81821   0.00000
           0.00000   0.00000  26.81821
Lengths:  26.81821  26.81821  26.81821
Angles:   90.00000  90.00000  90.00000
Rectangular boundary conditions

net charge:   0.00000000

component   0 (CO2) lambda:  0 occupancy:  1 (1.000000)
    net charge:   0.00000000 [e]

Amount of molecules per component :
-------------------------------------------------------------------------------
Component 0 (CO2)
    molecules:         2.000000e+02 molecules
    number density:    1.036909e-02 molec/A^3
    density:           7.575834e+02 kg/m^3

Total potential energy/kʙ       -2.356603e+05 [K]
-------------------------------------------------------------------------------
    external field VDW/kʙ        0.000000e+00 [K]
    external field Real/kʙ       0.000000e+00 [K]
    framework-molecule VDW/kʙ    0.000000e+00 [K]
    framework-molecule Real/kʙ   0.000000e+00 [K]
    molecule-molecule VDW/kʙ    -1.673276e+05 [K]
    molecule-molecule Real/kʙ   -5.606265e+04 [K]
    Van der Waals (Tail)/kʙ     -4.999746e+03 [K]
    Ewald Fourier/kʙ             1.088281e+04 [K]
    Ewald self/kʙ               -4.023739e+06 [K]
    Ewald exclusion/kʙ           4.005586e+06 [K]
    intra VDW/kʙ                 0.000000e+00 [K]
    intra Coulombic/kʙ           0.000000e+00 [K]
    polarization/kʙ              0.000000e+00 [K]
    dU/dlambda VDW/kʙ            0.000000e+00 [K]
    dU/dlambda Real/kʙ           0.000000e+00 [K]
    dU/dlambda Ewald/kʙ          0.000000e+00 [K]


Initialization: Current cycle: 300 out of 1000
===============================================================================

Box:      24.89725   0.00000   0.00000
           0.00000  24.89725   0.00000
           0.00000   0.00000  24.89725
Lengths:  24.89725  24.89725  24.89725
Angles:   90.00000  90.00000  90.00000
Rectangular boundary conditions

net charge:   0.00000000

component   0 (CO2) lambda:  0 occupancy:  1 (1.000000)
    net charge:   0.00000000 [e]

Amount of molecules per component :
-------------------------------------------------------------------------------
Component 0 (CO2)
    molecules:         2.000000e+02 molecules
    number density:    1.295913e-02 molec/A^3
    density:           9.468166e+02 kg/m^3

Total potential energy/kʙ       -2.609494e+05 [K]
-------------------------------------------------------------------------------
    external field VDW/kʙ        0.000000e+00 [K]
    external field Real/kʙ       0.000000e+00 [K]
    framework-molecule VDW/kʙ    0.000000e+00 [K]
    framework-molecule Real/kʙ   0.000000e+00 [K]
    molecule-molecule VDW/kʙ    -1.922809e+05 [K]
    molecule-molecule Real/kʙ   -5.394802e+04 [K]
    Van der Waals (Tail)/kʙ     -6.248608e+03 [K]
    Ewald Fourier/kʙ             9.681150e+03 [K]
    Ewald self/kʙ               -4.023739e+06 [K]
    Ewald exclusion/kʙ           4.005586e+06 [K]
    intra VDW/kʙ                 0.000000e+00 [K]
    intra Coulombic/kʙ           0.000000e+00 [K]
    polarization/kʙ              0.000000e+00 [K]
    dU/dlambda VDW/kʙ            0.000000e+00 [K]
    dU/dlambda Real/kʙ           0.000000e+00 [K]
    dU/dlambda Ewald/kʙ          0.000000e+00 [K]


Initialization: Current cycle: 400 out of 1000
===============================================================================

Box:      24.26774   0.00000   0.00000
           0.00000  24.26774   0.00000
           0.00000   0.00000  24.26774
Lengths:  24.26774  24.26774  24.26774
Angles:   90.00000  90.00000  90.00000
Rectangular boundary conditions

net charge:   0.00000000

component   0 (CO2) lambda:  0 occupancy:  1 (1.000000)
    net charge:   0.00000000 [e]

Amount of molecules per component :
-------------------------------------------------------------------------------
Component 0 (CO2)
    molecules:         2.000000e+02 molecules
    number density:    1.399400e-02 molec/A^3
    density:           1.022425e+03 kg/m^3

Total potential energy/kʙ       -2.964521e+05 [K]
-------------------------------------------------------------------------------
    external field VDW/kʙ        0.000000e+00 [K]
    external field Real/kʙ       0.000000e+00 [K]
    framework-molecule VDW/kʙ    0.000000e+00 [K]
    framework-molecule Real/kʙ   0.000000e+00 [K]
    molecule-molecule VDW/kʙ    -2.141261e+05 [K]
    molecule-molecule Real/kʙ   -6.547604e+04 [K]
    Van der Waals (Tail)/kʙ     -6.747596e+03 [K]
    Ewald Fourier/kʙ             8.050783e+03 [K]
    Ewald self/kʙ               -4.023739e+06 [K]
    Ewald exclusion/kʙ           4.005586e+06 [K]
    intra VDW/kʙ                 0.000000e+00 [K]
    intra Coulombic/kʙ           0.000000e+00 [K]
    polarization/kʙ              0.000000e+00 [K]
    dU/dlambda VDW/kʙ            0.000000e+00 [K]
    dU/dlambda Real/kʙ           0.000000e+00 [K]
    dU/dlambda Ewald/kʙ          0.000000e+00 [K]


Initialization: Current cycle: 500 out of 1000
===============================================================================

Box:      24.19964   0.00000   0.00000
           0.00000  24.19964   0.00000
           0.00000   0.00000  24.19964
Lengths:  24.19964  24.19964  24.19964
Angles:   90.00000  90.00000  90.00000
Rectangular boundary conditions

net charge:   0.00000000

component   0 (CO2) lambda:  0 occupancy:  1 (1.000000)
    net charge:   0.00000000 [e]

Amount of molecules per component :
-------------------------------------------------------------------------------
Component 0 (CO2)
    molecules:         2.000000e+02 molecules
    number density:    1.411247e-02 molec/A^3
    density:           1.031081e+03 kg/m^3

Total potential energy/kʙ       -2.973214e+05 [K]
-------------------------------------------------------------------------------
    external field VDW/kʙ        0.000000e+00 [K]
    external field Real/kʙ       0.000000e+00 [K]
    framework-molecule VDW/kʙ    0.000000e+00 [K]
    framework-molecule Real/kʙ   0.000000e+00 [K]
    molecule-molecule VDW/kʙ    -2.158076e+05 [K]
    molecule-molecule Real/kʙ   -6.450870e+04 [K]
    Van der Waals (Tail)/kʙ     -6.804721e+03 [K]
    Ewald Fourier/kʙ             7.952746e+03 [K]
    Ewald self/kʙ               -4.023739e+06 [K]
    Ewald exclusion/kʙ           4.005586e+06 [K]
    intra VDW/kʙ                 0.000000e+00 [K]
    intra Coulombic/kʙ           0.000000e+00 [K]
    polarization/kʙ              0.000000e+00 [K]
    dU/dlambda VDW/kʙ            0.000000e+00 [K]
    dU/dlambda Real/kʙ           0.000000e+00 [K]
    dU/dlambda Ewald/kʙ          0.000000e+00 [K]


Initialization: Current cycle: 600 out of 1000
===============================================================================

Box:      24.12058   0.00000   0.00000
           0.00000  24.12058   0.00000
           0.00000   0.00000  24.12058
Lengths:  24.12058  24.12058  24.12058
Angles:   90.00000  90.00000  90.00000
Rectangular boundary conditions

net charge:   0.00000000

component   0 (CO2) lambda:  0 occupancy:  1 (1.000000)
    net charge:   0.00000000 [e]

Amount of molecules per component :
-------------------------------------------------------------------------------
Component 0 (CO2)
    molecules:         2.000000e+02 molecules
    number density:    1.425170e-02 molec/A^3
    density:           1.041254e+03 kg/m^3

Total potential energy/kʙ       -2.982000e+05 [K]
-------------------------------------------------------------------------------
    external field VDW/kʙ        0.000000e+00 [K]
    external field Real/kʙ       0.000000e+00 [K]
    framework-molecule VDW/kʙ    0.000000e+00 [K]
    framework-molecule Real/kʙ   0.000000e+00 [K]
    molecule-molecule VDW/kʙ    -2.146493e+05 [K]
    molecule-molecule Real/kʙ   -6.581698e+04 [K]
    Van der Waals (Tail)/kʙ     -6.871856e+03 [K]
    Ewald Fourier/kʙ             7.291309e+03 [K]
    Ewald self/kʙ               -4.023739e+06 [K]
    Ewald exclusion/kʙ           4.005586e+06 [K]
    intra VDW/kʙ                 0.000000e+00 [K]
    intra Coulombic/kʙ           0.000000e+00 [K]
    polarization/kʙ              0.000000e+00 [K]
    dU/dlambda VDW/kʙ            0.000000e+00 [K]
    dU/dlambda Real/kʙ           0.000000e+00 [K]
    dU/dlambda Ewald/kʙ          0.000000e+00 [K]


Initialization: Current cycle: 700 out of 1000
===============================================================================

Box:      23.83361   0.00000   0.00000
           0.00000  23.83361   0.00000
           0.00000   0.00000  23.83361
Lengths:  23.83361  23.83361  23.83361
Angles:   90.00000  90.00000  90.00000
Rectangular boundary conditions

net charge:   0.00000000

component   0 (CO2) lambda:  0 occupancy:  1 (1.000000)
    net charge:   0.00000000 [e]

Amount of molecules per component :
-------------------------------------------------------------------------------
Component 0 (CO2)
    molecules:         2.000000e+02 molecules
    number density:    1.477272e-02 molec/A^3
    density:           1.079320e+03 kg/m^3

Total potential energy/kʙ       -3.048522e+05 [K]
-------------------------------------------------------------------------------
    external field VDW/kʙ        0.000000e+00 [K]
    external field Real/kʙ       0.000000e+00 [K]
    framework-molecule VDW/kʙ    0.000000e+00 [K]
    framework-molecule Real/kʙ   0.000000e+00 [K]
    molecule-molecule VDW/kʙ    -2.257310e+05 [K]
    molecule-molecule Real/kʙ   -6.210353e+04 [K]
    Van der Waals (Tail)/kʙ     -7.123081e+03 [K]
    Ewald Fourier/kʙ             8.258515e+03 [K]
    Ewald self/kʙ               -4.023739e+06 [K]
    Ewald exclusion/kʙ           4.005586e+06 [K]
    intra VDW/kʙ                 0.000000e+00 [K]
    intra Coulombic/kʙ           0.000000e+00 [K]
    polarization/kʙ              0.000000e+00 [K]
    dU/dlambda VDW/kʙ            0.000000e+00 [K]
    dU/dlambda Real/kʙ           0.000000e+00 [K]
    dU/dlambda Ewald/kʙ          0.000000e+00 [K]


Initialization: Current cycle: 800 out of 1000
===============================================================================

Box:      23.86256   0.00000   0.00000
           0.00000  23.86256   0.00000
           0.00000   0.00000  23.86256
Lengths:  23.86256  23.86256  23.86256
Angles:   90.00000  90.00000  90.00000
Rectangular boundary conditions

net charge:   0.00000000

component   0 (CO2) lambda:  0 occupancy:  1 (1.000000)
    net charge:   0.00000000 [e]

Amount of molecules per component :
-------------------------------------------------------------------------------
Component 0 (CO2)
    molecules:         2.000000e+02 molecules
    number density:    1.471902e-02 molec/A^3
    density:           1.075397e+03 kg/m^3

Total potential energy/kʙ       -3.046230e+05 [K]
-------------------------------------------------------------------------------
    external field VDW/kʙ        0.000000e+00 [K]
    external field Real/kʙ       0.000000e+00 [K]
    framework-molecule VDW/kʙ    0.000000e+00 [K]
    framework-molecule Real/kʙ   0.000000e+00 [K]
    molecule-molecule VDW/kʙ    -2.221748e+05 [K]
    molecule-molecule Real/kʙ   -6.552912e+04 [K]
    Van der Waals (Tail)/kʙ     -7.097187e+03 [K]
    Ewald Fourier/kʙ             8.331216e+03 [K]
    Ewald self/kʙ               -4.023739e+06 [K]
    Ewald exclusion/kʙ           4.005586e+06 [K]
    intra VDW/kʙ                 0.000000e+00 [K]
    intra Coulombic/kʙ           0.000000e+00 [K]
    polarization/kʙ              0.000000e+00 [K]
    dU/dlambda VDW/kʙ            0.000000e+00 [K]
    dU/dlambda Real/kʙ           0.000000e+00 [K]
    dU/dlambda Ewald/kʙ          0.000000e+00 [K]


Initialization: Current cycle: 900 out of 1000
===============================================================================

Box:      23.99041   0.00000   0.00000
           0.00000  23.99041   0.00000
           0.00000   0.00000  23.99041
Lengths:  23.99041  23.99041  23.99041
Angles:   90.00000  90.00000  90.00000
Rectangular boundary conditions

net charge:   0.00000000

component   0 (CO2) lambda:  0 occupancy:  1 (1.000000)
    net charge:   0.00000000 [e]

Amount of molecules per component :
-------------------------------------------------------------------------------
Component 0 (CO2)
    molecules:         2.000000e+02 molecules
    number density:    1.448495e-02 molec/A^3
    density:           1.058295e+03 kg/m^3

Total potential energy/kʙ       -3.017403e+05 [K]
-------------------------------------------------------------------------------
    external field VDW/kʙ        0.000000e+00 [K]
    external field Real/kʙ       0.000000e+00 [K]
    framework-molecule VDW/kʙ    0.000000e+00 [K]
    framework-molecule Real/kʙ   0.000000e+00 [K]
    molecule-molecule VDW/kʙ    -2.183090e+05 [K]
    molecule-molecule Real/kʙ   -6.588235e+04 [K]
    Van der Waals (Tail)/kʙ     -6.984322e+03 [K]
    Ewald Fourier/kʙ             7.588463e+03 [K]
    Ewald self/kʙ               -4.023739e+06 [K]
    Ewald exclusion/kʙ           4.005586e+06 [K]
    intra VDW/kʙ                 0.000000e+00 [K]
    intra Coulombic/kʙ           0.000000e+00 [K]
    polarization/kʙ              0.000000e+00 [K]
    dU/dlambda VDW/kʙ            0.000000e+00 [K]
    dU/dlambda Real/kʙ           0.000000e+00 [K]
    dU/dlambda Ewald/kʙ          0.000000e+00 [K]


Current cycle: 0 out of 5000
===============================================================================

Box:      23.87030   0.00000   0.00000  Average:  23.87030   0.00000   0.00000
           0.00000  23.87030   0.00000             0.00000  23.87030   0.00000
           0.00000   0.00000  23.87030             0.00000   0.00000  23.87030
Lengths:  23.87030  23.87030  23.87030  Average:  23.87030  23.87030  23.87030
Angles:   90.00000  90.00000  90.00000  Average:  90.00000  90.00000  90.00000
Rectangular boundary conditions

net charge:   0.00000000

component 0 (CO2) lambda:  0 occupancy:  1 (1.000000)
    net charge:   0.00000000 [e]

Amount of molecules per component :
-------------------------------------------------------------------------------
Component 0 (CO2)
    molecules:      2.000000e+02 molecules  (2.000000e+02 +/- 0.000000e+00)
    number density: 1.470470e-02 molec./A^3 (1.470470e-02 +/- 0.000000e+00)
    density:        1.074350e+03 kg/m^3     (1.074350e+03 +/- 0.000000e+00)

Average pressure tensor: 
-------------------------------------------------------------------------------
 5.0755e+02  0.0000e+00  0.0000e+00 +/- 0.0000e+00 0.0000e+00 0.0000e+00 [bar]
 0.0000e+00  5.0755e+02  0.0000e+00 +/- 0.0000e+00 0.0000e+00 0.0000e+00 [bar]
 0.0000e+00  0.0000e+00  5.0755e+02 +/- 0.0000e+00 0.0000e+00 0.0000e+00 [bar]
Ideal-gas pressure:   5.075511e+02 +/ 0.000000e+00 [bar]
Excess pressure:      0.000000e+00 +/ 0.000000e+00 [bar]
Pressure:             5.075511e+02 +/ 0.000000e+00 [bar]

Total potential energy/kʙ  -3.137064e+05 (-3.137064e+05 +/- 0.000000e+00) [K]
-------------------------------------------------------------------------------
ExternalField-molecule
    Van der Waals/kʙ        0.000000e+00 ( 0.000000e+00 +/- 0.000000e+00) [K]
Framework-molecule
    Van der Waals/kʙ        0.000000e+00 ( 0.000000e+00 +/- 0.000000e+00) [K]
    Van der Waals (Tail)/kʙ 0.000000e+00 ( 0.000000e+00 +/- 0.000000e+00) [K]
    Coulombic Real/kʙ       0.000000e+00 ( 0.000000e+00 +/- 0.000000e+00) [K]
    Coulombic Fourier/kʙ    0.000000e+00 ( 0.000000e+00 +/- 0.000000e+00) [K]
Molecule-molecule
    Van der Waals/kʙ       -2.253904e+05 (-2.253904e+05 +/- 0.000000e+00) [K]
    Van der Waals (Tail)/kʙ-7.090280e+03 (-7.090280e+03 +/- 0.000000e+00) [K]
    Coulombic Real/kʙ      -7.116577e+04 (-7.116577e+04 +/- 0.000000e+00) [K]
    Coulombic Fourier/kʙ   -1.005999e+04 (-1.005999e+04 +/- 0.000000e+00) [K]
    Molecule Intra/kʙ       0.000000e+00 ( 0.000000e+00 +/- 0.000000e+00) [K]

Current cycle: 100 out of 5000
===============================================================================

Box:      23.80836   0.00000   0.00000  Average:  23.92682   0.00000   0.00000
           0.00000  23.80836   0.00000             0.00000  23.92682   0.00000
           0.00000   0.00000  23.80836             0.00000   0.00000  23.92682
Lengths:  23.80836  23.80836  23.80836  Average:  23.92682  23.92682  23.92682
Angles:   90.00000  90.00000  90.00000  Average:  90.00000  90.00000  90.00000
Rectangular boundary conditions

net charge:   0.00000000

component 0 (CO2) lambda:  0 occupancy:  1 (1.000000)
    net charge:   0.00000000 [e]

Amount of molecules per component :
-------------------------------------------------------------------------------
Component 0 (CO2)
    molecules:      2.000000e+02 molecules  (2.000000e+02 +/- 0.000000e+00)
    number density: 1.481976e-02 molec./A^3 (1.460315e-02 +/- 0.000000e+00)
    density:        1.082757e+03 kg/m^3     (1.066931e+03 +/- 0.000000e+00)

Average pressure tensor: 
-------------------------------------------------------------------------------
 1.1279e+02 -1.6545e+02 -4.4059e+01 +/- 0.0000e+00 0.0000e+00 0.0000e+00 [bar]
-1.6545e+02  3.5393e+02 -2.3832e+02 +/- 0.0000e+00 0.0000e+00 0.0000e+00 [bar]
-4.4059e+01 -2.3832e+02  5.4557e+01 +/- 0.0000e+00 0.0000e+00 0.0000e+00 [bar]
Ideal-gas pressure:   5.040459e+02 +/ 0.000000e+00 [bar]
Excess pressure:     -3.302887e+02 +/ 0.000000e+00 [bar]
Pressure:             1.737572e+02 +/ 0.000000e+00 [bar]

Total potential energy/kʙ  -3.117463e+05 (-3.094679e+05 +/- 0.000000e+00) [K]
-------------------------------------------------------------------------------
ExternalField-molecule
    Van der Waals/kʙ        0.000000e+00 ( 0.000000e+00 +/- 0.000000e+00) [K]
Framework-molecule
    Van der Waals/kʙ        0.000000e+00 ( 0.000000e+00 +/- 0.000000e+00) [K]
    Van der Waals (Tail)/kʙ 0.000000e+00 ( 0.000000e+00 +/- 0.000000e+00) [K]
    Coulombic Real/kʙ       0.000000e+00 ( 0.000000e+00 +/- 0.000000e+00) [K]
    Coulombic Fourier/kʙ    0.000000e+00 ( 0.000000e+00 +/- 0.000000e+00) [K]
Molecule-molecule
    Van der Waals/kʙ       -2.250473e+05 (-2.216261e+05 +/- 0.000000e+00) [K]
    Van der Waals (Tail)/kʙ-7.145763e+03 (-7.056305e+03 +/- 0.000000e+00) [K]
    Coulombic Real/kʙ      -6.890951e+04 (-7.083656e+04 +/- 0.000000e+00) [K]
    Coulombic Fourier/kʙ   -1.064377e+04 (-9.948943e+03 +/- 0.000000e+00) [K]
    Molecule Intra/kʙ       0.000000e+00 ( 0.000000e+00 +/- 0.000000e+00) [K]

Current cycle: 200 out of 5000
===============================================================================

Box:      24.21594   0.00000   0.00000  Average:  23.92732   0.00000   0.00000
           0.00000  24.21594   0.00000             0.00000  23.92732   0.00000
           0.00000   0.00000  24.21594             0.00000   0.00000  23.92732
Lengths:  24.21594  24.21594  24.21594  Average:  23.92732  23.92732  23.92732
Angles:   90.00000  90.00000  90.00000  Average:  90.00000  90.00000  90.00000
Rectangular boundary conditions

net charge:   0.00000000

component 0 (CO2) lambda:  0 occupancy:  1 (1.000000)
    net charge:   0.00000000 [e]

Amount of molecules per component :
-------------------------------------------------------------------------------
Component 0 (CO2)
    molecules:      2.000000e+02 molecules  (2.000000e+02 +/- 0.000000e+00)
    number density: 1.408401e-02 molec./A^3 (1.460282e-02 +/- 0.000000e+00)
    density:        1.029002e+03 kg/m^3     (1.066907e+03 +/- 0.000000e+00)

Average pressure tensor: 
-------------------------------------------------------------------------------
 1.8652e+02 -1.6388e+02 -6.2706e+00 +/- 0.0000e+00 0.0000e+00 0.0000e+00 [bar]
-1.6388e+02  7.7604e+01 -2.1071e+02 +/- 0.0000e+00 0.0000e+00 0.0000e+00 [bar]
-6.2706e+00 -2.1071e+02  1.5304e+02 +/- 0.0000e+00 0.0000e+00 0.0000e+00 [bar]
Ideal-gas pressure:   5.040347e+02 +/ 0.000000e+00 [bar]
Excess pressure:     -3.649784e+02 +/ 0.000000e+00 [bar]
Pressure:             1.390563e+02 +/ 0.000000e+00 [bar]

Total potential energy/kʙ  -2.988264e+05 (-3.087788e+05 +/- 0.000000e+00) [K]
-------------------------------------------------------------------------------
ExternalField-molecule
    Van der Waals/kʙ        0.000000e+00 ( 0.000000e+00 +/- 0.000000e+00) [K]
Framework-molecule
    Van der Waals/kʙ        0.000000e+00 ( 0.000000e+00 +/- 0.000000e+00) [K]
    Van der Waals (Tail)/kʙ 0.000000e+00 ( 0.000000e+00 +/- 0.000000e+00) [K]
    Coulombic Real/kʙ       0.000000e+00 ( 0.000000e+00 +/- 0.000000e+00) [K]
    Coulombic Fourier/kʙ    0.000000e+00 ( 0.000000e+00 +/- 0.000000e+00) [K]
Molecule-molecule
    Van der Waals/kʙ       -2.150984e+05 (-2.211613e+05 +/- 0.000000e+00) [K]
    Van der Waals (Tail)/kʙ-6.790997e+03 (-7.038638e+03 +/- 0.000000e+00) [K]
    Coulombic Real/kʙ      -6.762858e+04 (-7.054845e+04 +/- 0.000000e+00) [K]
    Coulombic Fourier/kʙ   -9.308464e+03 (-1.003040e+04 +/- 0.000000e+00) [K]
    Molecule Intra/kʙ       0.000000e+00 ( 0.000000e+00 +/- 0.000000e+00) [K]

Current cycle: 300 out of 5000
===============================================================================

Box:      23.80081   0.00000   0.00000  Average:  23.94008   0.00000   0.00000
           0.00000  23.80081   0.00000             0.00000  23.94008   0.00000
           0.00000   0.00000  23.80081             0.00000   0.00000  23.94008
Lengths:  23.80081  23.80081  23.80081  Average:  23.94008  23.94008  23.94008
Angles:   90.00000  90.00000  90.00000  Average:  90.00000  90.00000  90.00000
Rectangular boundary conditions

net charge:   0.00000000

component 0 (CO2) lambda:  0 occupancy:  1 (1.000000)
    net charge:   0.00000000 [e]

Amount of molecules per component :
-------------------------------------------------------------------------------
Component 0 (CO2)
    molecules:      2.000000e+02 molecules  (2.000000e+02 +/- 0.000000e+00)
    number density: 1.483388e-02 molec./A^3 (1.458022e-02 +/- 0.000000e+00)
    density:        1.083789e+03 kg/m^3     (1.065256e+03 +/- 0.000000e+00)

Average pressure tensor: 
-------------------------------------------------------------------------------
 1.4029e+02 -1.1443e+02 -4.7702e+01 +/- 0.0000e+00 0.0000e+00 0.0000e+00 [bar]
-1.1443e+02  9.0374e+01 -1.6516e+02 +/- 0.0000e+00 0.0000e+00 0.0000e+00 [bar]
-4.7702e+01 -1.6516e+02  2.1548e+02 +/- 0.0000e+00 0.0000e+00 0.0000e+00 [bar]
Ideal-gas pressure:   5.032547e+02 +/ 0.000000e+00 [bar]
Excess pressure:     -3.545428e+02 +/ 0.000000e+00 [bar]
Pressure:             1.487120e+02 +/ 0.000000e+00 [bar]

Total potential energy/kʙ  -3.151169e+05 (-3.077429e+05 +/- 0.000000e+00) [K]
-------------------------------------------------------------------------------
ExternalField-molecule
    Van der Waals/kʙ        0.000000e+00 ( 0.000000e+00 +/- 0.000000e+00) [K]
Framework-molecule
    Van der Waals/kʙ        0.000000e+00 ( 0.000000e+00 +/- 0.000000e+00) [K]
    Van der Waals (Tail)/kʙ 0.000000e+00 ( 0.000000e+00 +/- 0.000000e+00) [K]
    Coulombic Real/kʙ       0.000000e+00 ( 0.000000e+00 +/- 0.000000e+00) [K]
    Coulombic Fourier/kʙ    0.000000e+00 ( 0.000000e+00 +/- 0.000000e+00) [K]
Molecule-molecule
    Van der Waals/kʙ       -2.321447e+05 (-2.207838e+05 +/- 0.000000e+00) [K]
    Van der Waals (Tail)/kʙ-7.152569e+03 (-7.036552e+03 +/- 0.000000e+00) [K]
    Coulombic Real/kʙ      -6.462315e+04 (-6.980569e+04 +/- 0.000000e+00) [K]
    Coulombic Fourier/kʙ   -1.119644e+04 (-1.011685e+04 +/- 0.000000e+00) [K]
    Molecule Intra/kʙ       0.000000e+00 ( 0.000000e+00 +/- 0.000000e+00) [K]

Current cycle: 400 out of 5000
===============================================================================

Box:      23.76821   0.00000   0.00000  Average:  23.89889   0.00000   0.00000
           0.00000  23.76821   0.00000             0.00000  23.89889   0.00000
           0.00000   0.00000  23.76821             0.00000   0.00000  23.89889
Lengths:  23.76821  23.76821  23.76821  Average:  23.89889  23.89889  23.89889
Angles:   90.00000  90.00000  90.00000  Average:  90.00000  90.00000  90.00000
Rectangular boundary conditions

net charge:   0.00000000

component 0 (CO2) lambda:  0 occupancy:  1 (1.000000)
    net charge:   0.00000000 [e]

Amount of molecules per component :
-------------------------------------------------------------------------------
Component 0 (CO2)
    molecules:      2.000000e+02 molecules  (2.000000e+02 +/- 0.000000e+00)
    number density: 1.489500e-02 molec./A^3 (1.465590e-02 +/- 0.000000e+00)
    density:        1.088254e+03 kg/m^3     (1.070785e+03 +/- 0.000000e+00)

Average pressure tensor: 
-------------------------------------------------------------------------------
 1.3385e+02 -1.7643e+02 -1.1897e+02 +/- 0.0000e+00 0.0000e+00 0.0000e+00 [bar]
-1.7643e+02  1.0586e+02 -9.2793e+01 +/- 0.0000e+00 0.0000e+00 0.0000e+00 [bar]
-1.1897e+02 -9.2793e+01  1.8839e+02 +/- 0.0000e+00 0.0000e+00 0.0000e+00 [bar]
Ideal-gas pressure:   5.058670e+02 +/ 0.000000e+00 [bar]
Excess pressure:     -3.631662e+02 +/ 0.000000e+00 [bar]
Pressure:             1.427008e+02 +/ 0.000000e+00 [bar]

Total potential energy/kʙ  -3.198428e+05 (-3.090124e+05 +/- 0.000000e+00) [K]
-------------------------------------------------------------------------------
ExternalField-molecule
    Van der Waals/kʙ        0.000000e+00 ( 0.000000e+00 +/- 0.000000e+00) [K]
Framework-molecule
    Van der Waals/kʙ        0.000000e+00 ( 0.000000e+00 +/- 0.000000e+00) [K]
    Van der Waals (Tail)/kʙ 0.000000e+00 ( 0.000000e+00 +/- 0.000000e+00) [K]
    Coulombic Real/kʙ       0.000000e+00 ( 0.000000e+00 +/- 0.000000e+00) [K]
    Coulombic Fourier/kʙ    0.000000e+00 ( 0.000000e+00 +/- 0.000000e+00) [K]
Molecule-molecule
    Van der Waals/kʙ       -2.238602e+05 (-2.211495e+05 +/- 0.000000e+00) [K]
    Van der Waals (Tail)/kʙ-7.182041e+03 (-7.065232e+03 +/- 0.000000e+00) [K]
    Coulombic Real/kʙ      -7.745227e+04 (-7.045198e+04 +/- 0.000000e+00) [K]
    Coulombic Fourier/kʙ   -1.134835e+04 (-1.034562e+04 +/- 0.000000e+00) [K]
    Molecule Intra/kʙ       0.000000e+00 ( 0.000000e+00 +/- 0.000000e+00) [K]

Current cycle: 500 out of 5000
===============================================================================

Box:      23.92556   0.00000   0.00000  Average:  23.87847   0.00000   0.00000
           0.00000  23.92556   0.00000             0.00000  23.87847   0.00000
           0.00000   0.00000  23.92556             0.00000   0.00000  23.87847
Lengths:  23.92556  23.92556  23.92556  Average:  23.87847  23.87847  23.87847
Angles:   90.00000  90.00000  90.00000  Average:  90.00000  90.00000  90.00000
Rectangular boundary conditions

net charge:   0.00000000

component 0 (CO2) lambda:  0 occupancy:  1 (1.000000)
    net charge:   0.00000000 [e]

Amount of molecules per component :
-------------------------------------------------------------------------------
Component 0 (CO2)
    molecules:      2.000000e+02 molecules  (2.000000e+02 +/- 0.000000e+00)
    number density: 1.460305e-02 molec./A^3 (1.469321e-02 +/- 0.000000e+00)
    density:        1.066924e+03 kg/m^3     (1.073511e+03 +/- 0.000000e+00)

Average pressure tensor: 
-------------------------------------------------------------------------------
 1.3211e+02 -1.3881e+02 -1.0611e+02 +/- 0.0000e+00 0.0000e+00 0.0000e+00 [bar]
-1.3881e+02  1.4769e+02 -4.4402e+01 +/- 0.0000e+00 0.0000e+00 0.0000e+00 [bar]
-1.0611e+02 -4.4402e+01  1.6780e+02 +/- 0.0000e+00 0.0000e+00 0.0000e+00 [bar]
Ideal-gas pressure:   5.071545e+02 +/ 0.000000e+00 [bar]
Excess pressure:     -3.579547e+02 +/ 0.000000e+00 [bar]
Pressure:             1.491998e+02 +/ 0.000000e+00 [bar]

Total potential energy/kʙ  -3.080664e+05 (-3.096342e+05 +/- 0.000000e+00) [K]
-------------------------------------------------------------------------------
ExternalField-molecule
    Van der Waals/kʙ        0.000000e+00 ( 0.000000e+00 +/- 0.000000e+00) [K]
Framework-molecule
    Van der Waals/kʙ        0.000000e+00 ( 0.000000e+00 +/- 0.000000e+00) [K]
    Van der Waals (Tail)/kʙ 0.000000e+00 ( 0.000000e+00 +/- 0.000000e+00) [K]
    Coulombic Real/kʙ       0.000000e+00 ( 0.000000e+00 +/- 0.000000e+00) [K]
    Coulombic Fourier/kʙ    0.000000e+00 ( 0.000000e+00 +/- 0.000000e+00) [K]
Molecule-molecule
    Van der Waals/kʙ       -2.212651e+05 (-2.213785e+05 +/- 0.000000e+00) [K]
    Van der Waals (Tail)/kʙ-7.041266e+03 (-7.084473e+03 +/- 0.000000e+00) [K]
    Coulombic Real/kʙ      -6.912738e+04 (-7.077033e+04 +/- 0.000000e+00) [K]
    Coulombic Fourier/kʙ   -1.063270e+04 (-1.040093e+04 +/- 0.000000e+00) [K]
    Molecule Intra/kʙ       0.000000e+00 ( 0.000000e+00 +/- 0.000000e+00) [K]

Current cycle: 600 out of 5000
===============================================================================

Box:      23.86036   0.00000   0.00000  Average:  23.90175   0.00000   0.00000
           0.00000  23.86036   0.00000             0.00000  23.90175   0.00000
           0.00000   0.00000  23.86036             0.00000   0.00000  23.90175
Lengths:  23.86036  23.86036  23.86036  Average:  23.90175  23.90175  23.90175
Angles:   90.00000  90.00000  90.00000  Average:  90.00000  90.00000  90.00000
Rectangular boundary conditions

net charge:   0.00000000

component 0 (CO2) lambda:  0 occupancy:  1 (1.000000)
    net charge:   0.00000000 [e]

Amount of molecules per component :
-------------------------------------------------------------------------------
Component 0 (CO2)
    molecules:      2.000000e+02 molecules  (2.000000e+02 +/- 0.000000e+00)
    number density: 1.472310e-02 molec./A^3 (1.465032e-02 +/- 0.000000e+00)
    density:        1.075695e+03 kg/m^3     (1.070377e+03 +/- 0.000000e+00)

Average pressure tensor: 
-------------------------------------------------------------------------------
 1.1682e+02 -1.0591e+02 -8.1877e+01 +/- 0.0000e+00 0.0000e+00 0.0000e+00 [bar]
-1.0591e+02  1.6425e+02 -6.1231e+01 +/- 0.0000e+00 0.0000e+00 0.0000e+00 [bar]
-8.1877e+01 -6.1231e+01  1.0214e+02 +/- 0.0000e+00 0.0000e+00 0.0000e+00 [bar]
Ideal-gas pressure:   5.056741e+02 +/ 0.000000e+00 [bar]
Excess pressure:     -3.779383e+02 +/ 0.000000e+00 [bar]
Pressure:             1.277357e+02 +/ 0.000000e+00 [bar]

Total potential energy/kʙ  -3.062676e+05 (-3.083698e+05 +/- 0.000000e+00) [K]
-------------------------------------------------------------------------------
ExternalField-molecule
    Van der Waals/kʙ        0.000000e+00 ( 0.000000e+00 +/- 0.000000e+00) [K]
Framework-molecule
    Van der Waals/kʙ        0.000000e+00 ( 0.000000e+00 +/- 0.000000e+00) [K]
    Van der Waals (Tail)/kʙ 0.000000e+00 ( 0.000000e+00 +/- 0.000000e+00) [K]
    Coulombic Real/kʙ       0.000000e+00 ( 0.000000e+00 +/- 0.000000e+00) [K]
    Coulombic Fourier/kʙ    0.000000e+00 ( 0.000000e+00 +/- 0.000000e+00) [K]
Molecule-molecule
    Van der Waals/kʙ       -2.265754e+05 (-2.207568e+05 +/- 0.000000e+00) [K]
    Van der Waals (Tail)/kʙ-7.099152e+03 (-7.063271e+03 +/- 0.000000e+00) [K]
    Coulombic Real/kʙ      -6.280523e+04 (-7.016454e+04 +/- 0.000000e+00) [K]
    Coulombic Fourier/kʙ   -9.787826e+03 (-1.038527e+04 +/- 0.000000e+00) [K]
    Molecule Intra/kʙ       0.000000e+00 ( 0.000000e+00 +/- 0.000000e+00) [K]

Current cycle: 700 out of 5000
===============================================================================

Box:      24.04425   0.00000   0.00000  Average:  23.90425   0.00000   0.00000
           0.00000  24.04425   0.00000             0.00000  23.90425   0.00000
           0.00000   0.00000  24.04425             0.00000   0.00000  23.90425
Lengths:  24.04425  24.04425  24.04425  Average:  23.90425  23.90425  23.90425
Angles:   90.00000  90.00000  90.00000  Average:  90.00000  90.00000  90.00000
Rectangular boundary conditions

net charge:   0.00000000

component 0 (CO2) lambda:  0 occupancy:  1 (1.000000)
    net charge:   0.00000000 [e]

Amount of molecules per component :
-------------------------------------------------------------------------------
Component 0 (CO2)
    molecules:      2.000000e+02 molecules  (2.000000e+02 +/- 0.000000e+00)
    number density: 1.438787e-02 molec./A^3 (1.464539e-02 +/- 0.000000e+00)
    density:        1.051202e+03 kg/m^3     (1.070017e+03 +/- 0.000000e+00)

Average pressure tensor: 
-------------------------------------------------------------------------------
 1.2411e+02 -9.8234e+01 -9.0190e+01 +/- 0.0000e+00 0.0000e+00 0.0000e+00 [bar]
-9.8234e+01  1.3308e+02 -6.7409e+01 +/- 0.0000e+00 0.0000e+00 0.0000e+00 [bar]
-9.0190e+01 -6.7409e+01  7.9975e+01 +/- 0.0000e+00 0.0000e+00 0.0000e+00 [bar]
Ideal-gas pressure:   5.055040e+02 +/ 0.000000e+00 [bar]
Excess pressure:     -3.931165e+02 +/ 0.000000e+00 [bar]
Pressure:             1.123875e+02 +/ 0.000000e+00 [bar]

Total potential energy/kʙ  -3.080005e+05 (-3.081936e+05 +/- 0.000000e+00) [K]
-------------------------------------------------------------------------------
ExternalField-molecule
    Van der Waals/kʙ        0.000000e+00 ( 0.000000e+00 +/- 0.000000e+00) [K]
Framework-molecule
    Van der Waals/kʙ        0.000000e+00 ( 0.000000e+00 +/- 0.000000e+00) [K]
    Van der Waals (Tail)/kʙ 0.000000e+00 ( 0.000000e+00 +/- 0.000000e+00) [K]
    Coulombic Real/kʙ       0.000000e+00 ( 0.000000e+00 +/- 0.000000e+00) [K]
    Coulombic Fourier/kʙ    0.000000e+00 ( 0.000000e+00 +/- 0.000000e+00) [K]
Molecule-molecule
    Van der Waals/kʙ       -2.236530e+05 (-2.211699e+05 +/- 0.000000e+00) [K]
    Van der Waals (Tail)/kʙ-6.937513e+03 (-7.059390e+03 +/- 0.000000e+00) [K]
    Coulombic Real/kʙ      -6.723195e+04 (-6.958719e+04 +/- 0.000000e+00) [K]
    Coulombic Fourier/kʙ   -1.017801e+04 (-1.037720e+04 +/- 0.000000e+00) [K]
    Molecule Intra/kʙ       0.000000e+00 ( 0.000000e+00 +/- 0.000000e+00) [K]

Current cycle: 800 out of 5000
===============================================================================

Box:      23.68189   0.00000   0.00000  Average:  23.88884   0.00000   0.00000
           0.00000  23.68189   0.00000             0.00000  23.88884   0.00000
           0.00000   0.00000  23.68189             0.00000   0.00000  23.88884
Lengths:  23.68189  23.68189  23.68189  Average:  23.88884  23.88884  23.88884
Angles:   90.00000  90.00000  90.00000  Average:  90.00000  90.00000  90.00000
Rectangular boundary conditions

net charge:   0.00000000

component 0 (CO2) lambda:  0 occupancy:  1 (1.000000)
    net charge:   0.00000000 [e]

Amount of molecules per component :
-------------------------------------------------------------------------------
Component 0 (CO2)
    molecules:      2.000000e+02 molecules  (2.000000e+02 +/- 0.000000e+00)
    number density: 1.505848e-02 molec./A^3 (1.467434e-02 +/- 0.000000e+00)
    density:        1.100198e+03 kg/m^3     (1.072132e+03 +/- 0.000000e+00)

Average pressure tensor: 
-------------------------------------------------------------------------------
 7.7338e+01 -1.0192e+02 -8.1097e+01 +/- 0.0000e+00 0.0000e+00 0.0000e+00 [bar]
-1.0192e+02  1.4924e+02 -6.4925e+01 +/- 0.0000e+00 0.0000e+00 0.0000e+00 [bar]
-8.1097e+01 -6.4925e+01  6.3675e+01 +/- 0.0000e+00 0.0000e+00 0.0000e+00 [bar]
Ideal-gas pressure:   5.065033e+02 +/ 0.000000e+00 [bar]
Excess pressure:     -4.097512e+02 +/ 0.000000e+00 [bar]
Pressure:             9.675207e+01 +/ 0.000000e+00 [bar]

Total potential energy/kʙ  -3.107074e+05 (-3.083959e+05 +/- 0.000000e+00) [K]
-------------------------------------------------------------------------------
ExternalField-molecule
    Van der Waals/kʙ        0.000000e+00 ( 0.000000e+00 +/- 0.000000e+00) [K]
Framework-molecule
    Van der Waals/kʙ        0.000000e+00 ( 0.000000e+00 +/- 0.000000e+00) [K]
    Van der Waals (Tail)/kʙ 0.000000e+00 ( 0.000000e+00 +/- 0.000000e+00) [K]
    Coulombic Real/kʙ       0.000000e+00 ( 0.000000e+00 +/- 0.000000e+00) [K]
    Coulombic Fourier/kʙ    0.000000e+00 ( 0.000000e+00 +/- 0.000000e+00) [K]
Molecule-molecule
    Van der Waals/kʙ       -2.300411e+05 (-2.217900e+05 +/- 0.000000e+00) [K]
    Van der Waals (Tail)/kʙ-7.260866e+03 (-7.072747e+03 +/- 0.000000e+00) [K]
    Coulombic Real/kʙ      -6.422770e+04 (-6.919697e+04 +/- 0.000000e+00) [K]
    Coulombic Fourier/kʙ   -9.177792e+03 (-1.033624e+04 +/- 0.000000e+00) [K]
    Molecule Intra/kʙ       0.000000e+00 ( 0.000000e+00 +/- 0.000000e+00) [K]

Current cycle: 900 out of 5000
===============================================================================

Box:      23.36645   0.00000   0.00000  Average:  23.84107   0.00000   0.00000
           0.00000  23.36645   0.00000             0.00000  23.84107   0.00000
           0.00000   0.00000  23.36645             0.00000   0.00000  23.84107
Lengths:  23.36645  23.36645  23.36645  Average:  23.84107  23.84107  23.84107
Angles:   90.00000  90.00000  90.00000  Average:  90.00000  90.00000  90.00000
Rectangular boundary conditions

net charge:   0.00000000

component 0 (CO2) lambda:  0 occupancy:  1 (1.000000)
    net charge:   0.00000000 [e]

Amount of molecules per component :
-------------------------------------------------------------------------------
Component 0 (CO2)
    molecules:      2.000000e+02 molecules  (2.000000e+02 +/- 0.000000e+00)
    number density: 1.567660e-02 molec./A^3 (1.476550e-02 +/- 0.000000e+00)
    density:        1.145359e+03 kg/m^3     (1.078793e+03 +/- 0.000000e+00)

Average pressure tensor: 
-------------------------------------------------------------------------------
 6.4681e+01 -7.8988e+01 -8.1574e+01 +/- 0.0000e+00 0.0000e+00 0.0000e+00 [bar]
-7.8988e+01  1.7517e+02 -5.2396e+01 +/- 0.0000e+00 0.0000e+00 0.0000e+00 [bar]
-8.1574e+01 -5.2396e+01  8.1445e+01 +/- 0.0000e+00 0.0000e+00 0.0000e+00 [bar]
Ideal-gas pressure:   5.096499e+02 +/ 0.000000e+00 [bar]
Excess pressure:     -4.025502e+02 +/ 0.000000e+00 [bar]
Pressure:             1.070997e+02 +/ 0.000000e+00 [bar]

Total potential energy/kʙ  -3.312917e+05 (-3.104068e+05 +/- 0.000000e+00) [K]
-------------------------------------------------------------------------------
ExternalField-molecule
    Van der Waals/kʙ        0.000000e+00 ( 0.000000e+00 +/- 0.000000e+00) [K]
Framework-molecule
    Van der Waals/kʙ        0.000000e+00 ( 0.000000e+00 +/- 0.000000e+00) [K]
    Van der Waals (Tail)/kʙ 0.000000e+00 ( 0.000000e+00 +/- 0.000000e+00) [K]
    Coulombic Real/kʙ       0.000000e+00 ( 0.000000e+00 +/- 0.000000e+00) [K]
    Coulombic Fourier/kʙ    0.000000e+00 ( 0.000000e+00 +/- 0.000000e+00) [K]
Molecule-molecule
    Van der Waals/kʙ       -2.400432e+05 (-2.235065e+05 +/- 0.000000e+00) [K]
    Van der Waals (Tail)/kʙ-7.558911e+03 (-7.120508e+03 +/- 0.000000e+00) [K]
    Coulombic Real/kʙ      -7.270991e+04 (-6.941560e+04 +/- 0.000000e+00) [K]
    Coulombic Fourier/kʙ   -1.097966e+04 (-1.036424e+04 +/- 0.000000e+00) [K]
    Molecule Intra/kʙ       0.000000e+00 ( 0.000000e+00 +/- 0.000000e+00) [K]

Current cycle: 1000 out of 5000
===============================================================================

Box:      23.60282   0.00000   0.00000  Average:  23.79982   0.00000   0.00000
           0.00000  23.60282   0.00000             0.00000  23.79982   0.00000
           0.00000   0.00000  23.60282             0.00000   0.00000  23.79982
Lengths:  23.60282  23.60282  23.60282  Average:  23.79982  23.79982  23.79982
Angles:   90.00000  90.00000  90.00000  Average:  90.00000  90.00000  90.00000
Rectangular boundary conditions

net charge:   0.00000000

component 0 (CO2) lambda:  0 occupancy:  1 (1.000000)
    net charge:   0.00000000 [e]

Amount of molecules per component :
-------------------------------------------------------------------------------
Component 0 (CO2)
    molecules:      2.000000e+02 molecules  (2.000000e+02 +/- 0.000000e+00)
    number density: 1.521031e-02 molec./A^3 (1.484429e-02 +/- 0.000000e+00)
    density:        1.111291e+03 kg/m^3     (1.084549e+03 +/- 0.000000e+00)

Average pressure tensor: 
-------------------------------------------------------------------------------
 5.5148e+01 -3.7165e+01 -7.1152e+01 +/- 0.0000e+00 0.0000e+00 0.0000e+00 [bar]
-3.7165e+01  1.4691e+02 -4.0357e+01 +/- 0.0000e+00 0.0000e+00 0.0000e+00 [bar]
-7.1152e+01 -4.0357e+01  1.2534e+02 +/- 0.0000e+00 0.0000e+00 0.0000e+00 [bar]
Ideal-gas pressure:   5.123693e+02 +/ 0.000000e+00 [bar]
Excess pressure:     -4.032361e+02 +/ 0.000000e+00 [bar]
Pressure:             1.091332e+02 +/ 0.000000e+00 [bar]

Total potential energy/kʙ  -3.214621e+05 (-3.120357e+05 +/- 0.000000e+00) [K]
-------------------------------------------------------------------------------
ExternalField-molecule
    Van der Waals/kʙ        0.000000e+00 ( 0.000000e+00 +/- 0.000000e+00) [K]
Framework-molecule
    Van der Waals/kʙ        0.000000e+00 ( 0.000000e+00 +/- 0.000000e+00) [K]
    Van der Waals (Tail)/kʙ 0.000000e+00 ( 0.000000e+00 +/- 0.000000e+00) [K]
    Coulombic Real/kʙ       0.000000e+00 ( 0.000000e+00 +/- 0.000000e+00) [K]
    Coulombic Fourier/kʙ    0.000000e+00 ( 0.000000e+00 +/- 0.000000e+00) [K]
Molecule-molecule
    Van der Waals/kʙ       -2.359182e+05 (-2.249691e+05 +/- 0.000000e+00) [K]
    Van der Waals (Tail)/kʙ-7.334075e+03 (-7.157959e+03 +/- 0.000000e+00) [K]
    Coulombic Real/kʙ      -6.824996e+04 (-6.951873e+04 +/- 0.000000e+00) [K]
    Coulombic Fourier/kʙ   -9.959840e+03 (-1.038993e+04 +/- 0.000000e+00) [K]
    Molecule Intra/kʙ       0.000000e+00 ( 0.000000e+00 +/- 0.000000e+00) [K]

Current cycle: 1100 out of 5000
===============================================================================

Box:      23.64377   0.00000   0.00000  Average:  23.78862   0.00000   0.00000
           0.00000  23.64377   0.00000             0.00000  23.78862   0.00000
           0.00000   0.00000  23.64377             0.00000   0.00000  23.78862
Lengths:  23.64377  23.64377  23.64377  Average:  23.78862  23.78862  23.78862
Angles:   90.00000  90.00000  90.00000  Average:  90.00000  90.00000  90.00000
Rectangular boundary conditions

net charge:   0.00000000

component 0 (CO2) lambda:  0 occupancy:  1 (1.000000)
    net charge:   0.00000000 [e]

Amount of molecules per component :
-------------------------------------------------------------------------------
Component 0 (CO2)
    molecules:      2.000000e+02 molecules  (2.000000e+02 +/- 0.000000e+00)
    number density: 1.513142e-02 molec./A^3 (1.486482e-02 +/- 0.000000e+00)
    density:        1.105528e+03 kg/m^3     (1.086049e+03 +/- 0.000000e+00)

Average pressure tensor: 
-------------------------------------------------------------------------------
 3.5872e+01 -9.1767e+00 -7.0583e+01 +/- 0.0000e+00 0.0000e+00 0.0000e+00 [bar]
-9.1767e+00  1.2346e+02 -5.8310e+01 +/- 0.0000e+00 0.0000e+00 0.0000e+00 [bar]
-7.0583e+01 -5.8310e+01  1.0679e+02 +/- 0.0000e+00 0.0000e+00 0.0000e+00 [bar]
Ideal-gas pressure:   5.130779e+02 +/ 0.000000e+00 [bar]
Excess pressure:     -4.243725e+02 +/ 0.000000e+00 [bar]
Pressure:             8.870540e+01 +/ 0.000000e+00 [bar]

Total potential energy/kʙ  -3.158584e+05 (-3.125399e+05 +/- 0.000000e+00) [K]
-------------------------------------------------------------------------------
ExternalField-molecule
    Van der Waals/kʙ        0.000000e+00 ( 0.000000e+00 +/- 0.000000e+00) [K]
Framework-molecule
    Van der Waals/kʙ        0.000000e+00 ( 0.000000e+00 +/- 0.000000e+00) [K]
    Van der Waals (Tail)/kʙ 0.000000e+00 ( 0.000000e+00 +/- 0.000000e+00) [K]
    Coulombic Real/kʙ       0.000000e+00 ( 0.000000e+00 +/- 0.000000e+00) [K]
    Coulombic Fourier/kʙ    0.000000e+00 ( 0.000000e+00 +/- 0.000000e+00) [K]
Molecule-molecule
    Van der Waals/kʙ       -2.263200e+05 (-2.252514e+05 +/- 0.000000e+00) [K]
    Van der Waals (Tail)/kʙ-7.296038e+03 (-7.164153e+03 +/- 0.000000e+00) [K]
    Coulombic Real/kʙ      -7.176435e+04 (-6.972539e+04 +/- 0.000000e+00) [K]
    Coulombic Fourier/kʙ   -1.047797e+04 (-1.039898e+04 +/- 0.000000e+00) [K]
    Molecule Intra/kʙ       0.000000e+00 ( 0.000000e+00 +/- 0.000000e+00) [K]

Current cycle: 1200 out of 5000
===============================================================================

Box:      23.84645   0.00000   0.00000  Average:  23.77982   0.00000   0.00000
           0.00000  23.84645   0.00000             0.00000  23.77982   0.00000
           0.00000   0.00000  23.84645             0.00000   0.00000  23.77982
Lengths:  23.84645  23.84645  23.84645  Average:  23.77982  23.77982  23.77982
Angles:   90.00000  90.00000  90.00000  Average:  90.00000  90.00000  90.00000
Rectangular boundary conditions

net charge:   0.00000000

component 0 (CO2) lambda:  0 occupancy:  1 (1.000000)
    net charge:   0.00000000 [e]

Amount of molecules per component :
-------------------------------------------------------------------------------
Component 0 (CO2)
    molecules:      2.000000e+02 molecules  (2.000000e+02 +/- 0.000000e+00)
    number density: 1.474887e-02 molec./A^3 (1.488092e-02 +/- 0.000000e+00)
    density:        1.077578e+03 kg/m^3     (1.087225e+03 +/- 0.000000e+00)

Average pressure tensor: 
-------------------------------------------------------------------------------
 3.6448e+01 -1.5782e+00 -7.4885e+01 +/- 0.0000e+00 0.0000e+00 0.0000e+00 [bar]
-1.5782e+00  1.2976e+02 -6.4079e+01 +/- 0.0000e+00 0.0000e+00 0.0000e+00 [bar]
-7.4885e+01 -6.4079e+01  1.2840e+02 +/- 0.0000e+00 0.0000e+00 0.0000e+00 [bar]
Ideal-gas pressure:   5.136336e+02 +/ 0.000000e+00 [bar]
Excess pressure:     -4.154312e+02 +/ 0.000000e+00 [bar]
Pressure:             9.820235e+01 +/ 0.000000e+00 [bar]

Total potential energy/kʙ  -3.182422e+05 (-3.131087e+05 +/- 0.000000e+00) [K]
-------------------------------------------------------------------------------
ExternalField-molecule
    Van der Waals/kʙ        0.000000e+00 ( 0.000000e+00 +/- 0.000000e+00) [K]
Framework-molecule
    Van der Waals/kʙ        0.000000e+00 ( 0.000000e+00 +/- 0.000000e+00) [K]
    Van der Waals (Tail)/kʙ 0.000000e+00 ( 0.000000e+00 +/- 0.000000e+00) [K]
    Coulombic Real/kʙ       0.000000e+00 ( 0.000000e+00 +/- 0.000000e+00) [K]
    Coulombic Fourier/kʙ    0.000000e+00 ( 0.000000e+00 +/- 0.000000e+00) [K]
Molecule-molecule
    Van der Waals/kʙ       -2.238731e+05 (-2.253949e+05 +/- 0.000000e+00) [K]
    Van der Waals (Tail)/kʙ-7.111579e+03 (-7.172281e+03 +/- 0.000000e+00) [K]
    Coulombic Real/kʙ      -7.672712e+04 (-7.011950e+04 +/- 0.000000e+00) [K]
    Coulombic Fourier/kʙ   -1.053034e+04 (-1.042205e+04 +/- 0.000000e+00) [K]
    Molecule Intra/kʙ       0.000000e+00 ( 0.000000e+00 +/- 0.000000e+00) [K]

Current cycle: 1300 out of 5000
===============================================================================

Box:      23.91860   0.00000   0.00000  Average:  23.78184   0.00000   0.00000
           0.00000  23.91860   0.00000             0.00000  23.78184   0.00000
           0.00000   0.00000  23.91860             0.00000   0.00000  23.78184
Lengths:  23.91860  23.91860  23.91860  Average:  23.78184  23.78184  23.78184
Angles:   90.00000  90.00000  90.00000  Average:  90.00000  90.00000  90.00000
Rectangular boundary conditions

net charge:   0.00000000

component 0 (CO2) lambda:  0 occupancy:  1 (1.000000)
    net charge:   0.00000000 [e]

Amount of molecules per component :
-------------------------------------------------------------------------------
Component 0 (CO2)
    molecules:      2.000000e+02 molecules  (2.000000e+02 +/- 0.000000e+00)
    number density: 1.461581e-02 molec./A^3 (1.487670e-02 +/- 0.000000e+00)
    density:        1.067856e+03 kg/m^3     (1.086917e+03 +/- 0.000000e+00)

Average pressure tensor: 
-------------------------------------------------------------------------------
 5.9292e+01 -1.1829e+01 -6.0107e+01 +/- 0.0000e+00 0.0000e+00 0.0000e+00 [bar]
-1.1829e+01  1.3842e+02 -5.5797e+01 +/- 0.0000e+00 0.0000e+00 0.0000e+00 [bar]
-6.0107e+01 -5.5797e+01  1.0618e+02 +/- 0.0000e+00 0.0000e+00 0.0000e+00 [bar]
Ideal-gas pressure:   5.134879e+02 +/ 0.000000e+00 [bar]
Excess pressure:     -4.121915e+02 +/ 0.000000e+00 [bar]
Pressure:             1.012963e+02 +/ 0.000000e+00 [bar]

Total potential energy/kʙ  -3.082833e+05 (-3.128516e+05 +/- 0.000000e+00) [K]
-------------------------------------------------------------------------------
ExternalField-molecule
    Van der Waals/kʙ        0.000000e+00 ( 0.000000e+00 +/- 0.000000e+00) [K]
Framework-molecule
    Van der Waals/kʙ        0.000000e+00 ( 0.000000e+00 +/- 0.000000e+00) [K]
    Van der Waals (Tail)/kʙ 0.000000e+00 ( 0.000000e+00 +/- 0.000000e+00) [K]
    Coulombic Real/kʙ       0.000000e+00 ( 0.000000e+00 +/- 0.000000e+00) [K]
    Coulombic Fourier/kʙ    0.000000e+00 ( 0.000000e+00 +/- 0.000000e+00) [K]
Molecule-molecule
    Van der Waals/kʙ       -2.219958e+05 (-2.252202e+05 +/- 0.000000e+00) [K]
    Van der Waals (Tail)/kʙ-7.047421e+03 (-7.169586e+03 +/- 0.000000e+00) [K]
    Coulombic Real/kʙ      -6.840828e+04 (-7.004660e+04 +/- 0.000000e+00) [K]
    Coulombic Fourier/kʙ   -1.083182e+04 (-1.041514e+04 +/- 0.000000e+00) [K]
    Molecule Intra/kʙ       0.000000e+00 ( 0.000000e+00 +/- 0.000000e+00) [K]

Current cycle: 1400 out of 5000
===============================================================================

Box:      23.67959   0.00000   0.00000  Average:  23.78618   0.00000   0.00000
           0.00000  23.67959   0.00000             0.00000  23.78618   0.00000
           0.00000   0.00000  23.67959             0.00000   0.00000  23.78618
Lengths:  23.67959  23.67959  23.67959  Average:  23.78618  23.78618  23.78618
Angles:   90.00000  90.00000  90.00000  Average:  90.00000  90.00000  90.00000
Rectangular boundary conditions

net charge:   0.00000000

component 0 (CO2) lambda:  0 occupancy:  1 (1.000000)
    net charge:   0.00000000 [e]

Amount of molecules per component :
-------------------------------------------------------------------------------
Component 0 (CO2)
    molecules:      2.000000e+02 molecules  (2.000000e+02 +/- 0.000000e+00)
    number density: 1.506287e-02 molec./A^3 (1.486816e-02 +/- 0.000000e+00)
    density:        1.100519e+03 kg/m^3     (1.086293e+03 +/- 0.000000e+00)

Average pressure tensor: 
-------------------------------------------------------------------------------
 7.5079e+01 -3.1345e+01 -5.1421e+01 +/- 0.0000e+00 0.0000e+00 0.0000e+00 [bar]
-3.1345e+01  1.4042e+02 -3.9512e+01 +/- 0.0000e+00 0.0000e+00 0.0000e+00 [bar]
-5.1421e+01 -3.9512e+01  9.5004e+01 +/- 0.0000e+00 0.0000e+00 0.0000e+00 [bar]
Ideal-gas pressure:   5.131932e+02 +/ 0.000000e+00 [bar]
Excess pressure:     -4.096912e+02 +/ 0.000000e+00 [bar]
Pressure:             1.035020e+02 +/ 0.000000e+00 [bar]

Total potential energy/kʙ  -3.104666e+05 (-3.126133e+05 +/- 0.000000e+00) [K]
-------------------------------------------------------------------------------
ExternalField-molecule
    Van der Waals/kʙ        0.000000e+00 ( 0.000000e+00 +/- 0.000000e+00) [K]
Framework-molecule
    Van der Waals/kʙ        0.000000e+00 ( 0.000000e+00 +/- 0.000000e+00) [K]
    Van der Waals (Tail)/kʙ 0.000000e+00 ( 0.000000e+00 +/- 0.000000e+00) [K]
    Coulombic Real/kʙ       0.000000e+00 ( 0.000000e+00 +/- 0.000000e+00) [K]
    Coulombic Fourier/kʙ    0.000000e+00 ( 0.000000e+00 +/- 0.000000e+00) [K]
Molecule-molecule
    Van der Waals/kʙ       -2.249919e+05 (-2.251461e+05 +/- 0.000000e+00) [K]
    Van der Waals (Tail)/kʙ-7.262982e+03 (-7.167258e+03 +/- 0.000000e+00) [K]
    Coulombic Real/kʙ      -6.822760e+04 (-6.991974e+04 +/- 0.000000e+00) [K]
    Coulombic Fourier/kʙ   -9.984211e+03 (-1.038017e+04 +/- 0.000000e+00) [K]
    Molecule Intra/kʙ       0.000000e+00 ( 0.000000e+00 +/- 0.000000e+00) [K]

Current cycle: 1500 out of 5000
===============================================================================

Box:      23.88966   0.00000   0.00000  Average:  23.78786   0.00000   0.00000
           0.00000  23.88966   0.00000             0.00000  23.78786   0.00000
           0.00000   0.00000  23.88966             0.00000   0.00000  23.78786
Lengths:  23.88966  23.88966  23.88966  Average:  23.78786  23.78786  23.78786
Angles:   90.00000  90.00000  90.00000  Average:  90.00000  90.00000  90.00000
Rectangular boundary conditions

net charge:   0.00000000

component 0 (CO2) lambda:  0 occupancy:  1 (1.000000)
    net charge:   0.00000000 [e]

Amount of molecules per component :
-------------------------------------------------------------------------------
Component 0 (CO2)
    molecules:      2.000000e+02 molecules  (2.000000e+02 +/- 0.000000e+00)
    number density: 1.466898e-02 molec./A^3 (1.486468e-02 +/- 0.000000e+00)
    density:        1.071741e+03 kg/m^3     (1.086039e+03 +/- 0.000000e+00)

Average pressure tensor: 
-------------------------------------------------------------------------------
 9.9736e+01 -1.5719e+01 -2.7651e+01 +/- 0.0000e+00 0.0000e+00 0.0000e+00 [bar]
-1.5719e+01  1.3496e+02 -3.5838e+01 +/- 0.0000e+00 0.0000e+00 0.0000e+00 [bar]
-2.7651e+01 -3.5838e+01  1.0184e+02 +/- 0.0000e+00 0.0000e+00 0.0000e+00 [bar]
Ideal-gas pressure:   5.130731e+02 +/ 0.000000e+00 [bar]
Excess pressure:     -4.008958e+02 +/ 0.000000e+00 [bar]
Pressure:             1.121774e+02 +/ 0.000000e+00 [bar]

Total potential energy/kʙ  -3.069128e+05 (-3.124280e+05 +/- 0.000000e+00) [K]
-------------------------------------------------------------------------------
ExternalField-molecule
    Van der Waals/kʙ        0.000000e+00 ( 0.000000e+00 +/- 0.000000e+00) [K]
Framework-molecule
    Van der Waals/kʙ        0.000000e+00 ( 0.000000e+00 +/- 0.000000e+00) [K]
    Van der Waals (Tail)/kʙ 0.000000e+00 ( 0.000000e+00 +/- 0.000000e+00) [K]
    Coulombic Real/kʙ       0.000000e+00 ( 0.000000e+00 +/- 0.000000e+00) [K]
    Coulombic Fourier/kʙ    0.000000e+00 ( 0.000000e+00 +/- 0.000000e+00) [K]
Molecule-molecule
    Van der Waals/kʙ       -2.256445e+05 (-2.251760e+05 +/- 0.000000e+00) [K]
    Van der Waals (Tail)/kʙ-7.073058e+03 (-7.165920e+03 +/- 0.000000e+00) [K]
    Coulombic Real/kʙ      -6.532483e+04 (-6.974302e+04 +/- 0.000000e+00) [K]
    Coulombic Fourier/kʙ   -8.870378e+03 (-1.034304e+04 +/- 0.000000e+00) [K]
    Molecule Intra/kʙ       0.000000e+00 ( 0.000000e+00 +/- 0.000000e+00) [K]

Current cycle: 1600 out of 5000
===============================================================================

Box:      23.85256   0.00000   0.00000  Average:  23.79052   0.00000   0.00000
           0.00000  23.85256   0.00000             0.00000  23.79052   0.00000
           0.00000   0.00000  23.85256             0.00000   0.00000  23.79052
Lengths:  23.85256  23.85256  23.85256  Average:  23.79052  23.79052  23.79052
Angles:   90.00000  90.00000  90.00000  Average:  90.00000  90.00000  90.00000
Rectangular boundary conditions

net charge:   0.00000000

component 0 (CO2) lambda:  0 occupancy:  1 (1.000000)
    net charge:   0.00000000 [e]

Amount of molecules per component :
-------------------------------------------------------------------------------
Component 0 (CO2)
    molecules:      2.000000e+02 molecules  (2.000000e+02 +/- 0.000000e+00)
    number density: 1.473754e-02 molec./A^3 (1.485941e-02 +/- 0.000000e+00)
    density:        1.076750e+03 kg/m^3     (1.085654e+03 +/- 0.000000e+00)

Average pressure tensor: 
-------------------------------------------------------------------------------
 1.0794e+02 -2.2424e+01 -2.5542e+01 +/- 0.0000e+00 0.0000e+00 0.0000e+00 [bar]
-2.2424e+01  1.4594e+02 -3.9892e+01 +/- 0.0000e+00 0.0000e+00 0.0000e+00 [bar]
-2.5542e+01 -3.9892e+01  1.0239e+02 +/- 0.0000e+00 0.0000e+00 0.0000e+00 [bar]
Ideal-gas pressure:   5.128912e+02 +/ 0.000000e+00 [bar]
Excess pressure:     -3.941360e+02 +/ 0.000000e+00 [bar]
Pressure:             1.187553e+02 +/ 0.000000e+00 [bar]

Total potential energy/kʙ  -3.066800e+05 (-3.121107e+05 +/- 0.000000e+00) [K]
-------------------------------------------------------------------------------
ExternalField-molecule
    Van der Waals/kʙ        0.000000e+00 ( 0.000000e+00 +/- 0.000000e+00) [K]
Framework-molecule
    Van der Waals/kʙ        0.000000e+00 ( 0.000000e+00 +/- 0.000000e+00) [K]
    Van der Waals (Tail)/kʙ 0.000000e+00 ( 0.000000e+00 +/- 0.000000e+00) [K]
    Coulombic Real/kʙ       0.000000e+00 ( 0.000000e+00 +/- 0.000000e+00) [K]
    Coulombic Fourier/kʙ    0.000000e+00 ( 0.000000e+00 +/- 0.000000e+00) [K]
Molecule-molecule
    Van der Waals/kʙ       -2.227096e+05 (-2.250371e+05 +/- 0.000000e+00) [K]
    Van der Waals (Tail)/kʙ-7.106114e+03 (-7.164916e+03 +/- 0.000000e+00) [K]
    Coulombic Real/kʙ      -6.664483e+04 (-6.960135e+04 +/- 0.000000e+00) [K]
    Coulombic Fourier/kʙ   -1.021946e+04 (-1.030730e+04 +/- 0.000000e+00) [K]
    Molecule Intra/kʙ       0.000000e+00 ( 0.000000e+00 +/- 0.000000e+00) [K]

Current cycle: 1700 out of 5000
===============================================================================

Box:      23.96093   0.00000   0.00000  Average:  23.78988   0.00000   0.00000
           0.00000  23.96093   0.00000             0.00000  23.78988   0.00000
           0.00000   0.00000  23.96093             0.00000   0.00000  23.78988
Lengths:  23.96093  23.96093  23.96093  Average:  23.78988  23.78988  23.78988
Angles:   90.00000  90.00000  90.00000  Average:  90.00000  90.00000  90.00000
Rectangular boundary conditions

net charge:   0.00000000

component 0 (CO2) lambda:  0 occupancy:  1 (1.000000)
    net charge:   0.00000000 [e]

Amount of molecules per component :
-------------------------------------------------------------------------------
Component 0 (CO2)
    molecules:      2.000000e+02 molecules  (2.000000e+02 +/- 0.000000e+00)
    number density: 1.453849e-02 molec./A^3 (1.486033e-02 +/- 0.000000e+00)
    density:        1.062207e+03 kg/m^3     (1.085721e+03 +/- 0.000000e+00)

Average pressure tensor: 
-------------------------------------------------------------------------------
 1.1122e+02 -2.1564e+01 -2.0673e+01 +/- 0.0000e+00 0.0000e+00 0.0000e+00 [bar]
-2.1564e+01  1.3344e+02 -4.9966e+01 +/- 0.0000e+00 0.0000e+00 0.0000e+00 [bar]
-2.0673e+01 -4.9966e+01  1.0964e+02 +/- 0.0000e+00 0.0000e+00 0.0000e+00 [bar]
Ideal-gas pressure:   5.129231e+02 +/ 0.000000e+00 [bar]
Excess pressure:     -3.948193e+02 +/ 0.000000e+00 [bar]
Pressure:             1.181038e+02 +/ 0.000000e+00 [bar]

Total potential energy/kʙ  -3.136696e+05 (-3.121209e+05 +/- 0.000000e+00) [K]
-------------------------------------------------------------------------------
ExternalField-molecule
    Van der Waals/kʙ        0.000000e+00 ( 0.000000e+00 +/- 0.000000e+00) [K]
Framework-molecule
    Van der Waals/kʙ        0.000000e+00 ( 0.000000e+00 +/- 0.000000e+00) [K]
    Van der Waals (Tail)/kʙ 0.000000e+00 ( 0.000000e+00 +/- 0.000000e+00) [K]
    Coulombic Real/kʙ       0.000000e+00 ( 0.000000e+00 +/- 0.000000e+00) [K]
    Coulombic Fourier/kʙ    0.000000e+00 ( 0.000000e+00 +/- 0.000000e+00) [K]
Molecule-molecule
    Van der Waals/kʙ       -2.231630e+05 (-2.250891e+05 +/- 0.000000e+00) [K]
    Van der Waals (Tail)/kʙ-7.010137e+03 (-7.164279e+03 +/- 0.000000e+00) [K]
    Coulombic Real/kʙ      -7.279964e+04 (-6.956678e+04 +/- 0.000000e+00) [K]
    Coulombic Fourier/kʙ   -1.069677e+04 (-1.030077e+04 +/- 0.000000e+00) [K]
    Molecule Intra/kʙ       0.000000e+00 ( 0.000000e+00 +/- 0.000000e+00) [K]

Current cycle: 1800 out of 5000
===============================================================================

Box:      23.92770   0.00000   0.00000  Average:  23.79671   0.00000   0.00000
           0.00000  23.92770   0.00000             0.00000  23.79671   0.00000
           0.00000   0.00000  23.92770             0.00000   0.00000  23.79671
Lengths:  23.92770  23.92770  23.92770  Average:  23.79671  23.79671  23.79671
Angles:   90.00000  90.00000  90.00000  Average:  90.00000  90.00000  90.00000
Rectangular boundary conditions

net charge:   0.00000000

component 0 (CO2) lambda:  0 occupancy:  1 (1.000000)
    net charge:   0.00000000 [e]

Amount of molecules per component :
-------------------------------------------------------------------------------
Component 0 (CO2)
    molecules:      2.000000e+02 molecules  (2.000000e+02 +/- 0.000000e+00)
    number density: 1.459914e-02 molec./A^3 (1.484740e-02 +/- 0.000000e+00)
    density:        1.066638e+03 kg/m^3     (1.084776e+03 +/- 0.000000e+00)

Average pressure tensor: 
-------------------------------------------------------------------------------
 1.0828e+02 -2.1864e+01 -2.0133e+01 +/- 0.0000e+00 0.0000e+00 0.0000e+00 [bar]
-2.1864e+01  1.2629e+02 -4.0985e+01 +/- 0.0000e+00 0.0000e+00 0.0000e+00 [bar]
-2.0133e+01 -4.0985e+01  1.0470e+02 +/- 0.0000e+00 0.0000e+00 0.0000e+00 [bar]
Ideal-gas pressure:   5.124765e+02 +/ 0.000000e+00 [bar]
Excess pressure:     -3.993857e+02 +/ 0.000000e+00 [bar]
Pressure:             1.130908e+02 +/ 0.000000e+00 [bar]

Total potential energy/kʙ  -3.121828e+05 (-3.120057e+05 +/- 0.000000e+00) [K]
-------------------------------------------------------------------------------
ExternalField-molecule
    Van der Waals/kʙ        0.000000e+00 ( 0.000000e+00 +/- 0.000000e+00) [K]
Framework-molecule
    Van der Waals/kʙ        0.000000e+00 ( 0.000000e+00 +/- 0.000000e+00) [K]
    Van der Waals (Tail)/kʙ 0.000000e+00 ( 0.000000e+00 +/- 0.000000e+00) [K]
    Coulombic Real/kʙ       0.000000e+00 ( 0.000000e+00 +/- 0.000000e+00) [K]
    Coulombic Fourier/kʙ    0.000000e+00 ( 0.000000e+00 +/- 0.000000e+00) [K]
Molecule-molecule
    Van der Waals/kʙ       -2.261120e+05 (-2.249283e+05 +/- 0.000000e+00) [K]
    Van der Waals (Tail)/kʙ-7.039381e+03 (-7.156967e+03 +/- 0.000000e+00) [K]
    Coulombic Real/kʙ      -6.940869e+04 (-6.962784e+04 +/- 0.000000e+00) [K]
    Coulombic Fourier/kʙ   -9.622715e+03 (-1.029260e+04 +/- 0.000000e+00) [K]
    Molecule Intra/kʙ       0.000000e+00 ( 0.000000e+00 +/- 0.000000e+00) [K]

Current cycle: 1900 out of 5000
===============================================================================

Box:      23.81745   0.00000   0.00000  Average:  23.79908   0.00000   0.00000
           0.00000  23.81745   0.00000             0.00000  23.79908   0.00000
           0.00000   0.00000  23.81745             0.00000   0.00000  23.79908
Lengths:  23.81745  23.81745  23.81745  Average:  23.79908  23.79908  23.79908
Angles:   90.00000  90.00000  90.00000  Average:  90.00000  90.00000  90.00000
Rectangular boundary conditions

net charge:   0.00000000

component 0 (CO2) lambda:  0 occupancy:  1 (1.000000)
    net charge:   0.00000000 [e]

Amount of molecules per component :
-------------------------------------------------------------------------------
Component 0 (CO2)
    molecules:      2.000000e+02 molecules  (2.000000e+02 +/- 0.000000e+00)
    number density: 1.480281e-02 molec./A^3 (1.484276e-02 +/- 0.000000e+00)
    density:        1.081518e+03 kg/m^3     (1.084438e+03 +/- 0.000000e+00)

Average pressure tensor: 
-------------------------------------------------------------------------------
 1.1203e+02 -2.5133e+01 -2.2789e+01 +/- 0.0000e+00 0.0000e+00 0.0000e+00 [bar]
-2.5133e+01  1.2318e+02 -3.6397e+01 +/- 0.0000e+00 0.0000e+00 0.0000e+00 [bar]
-2.2789e+01 -3.6397e+01  1.1213e+02 +/- 0.0000e+00 0.0000e+00 0.0000e+00 [bar]
Ideal-gas pressure:   5.123166e+02 +/ 0.000000e+00 [bar]
Excess pressure:     -3.965362e+02 +/ 0.000000e+00 [bar]
Pressure:             1.157804e+02 +/ 0.000000e+00 [bar]

Total potential energy/kʙ  -3.067590e+05 (-3.118969e+05 +/- 0.000000e+00) [K]
-------------------------------------------------------------------------------
ExternalField-molecule
    Van der Waals/kʙ        0.000000e+00 ( 0.000000e+00 +/- 0.000000e+00) [K]
Framework-molecule
    Van der Waals/kʙ        0.000000e+00 ( 0.000000e+00 +/- 0.000000e+00) [K]
    Van der Waals (Tail)/kʙ 0.000000e+00 ( 0.000000e+00 +/- 0.000000e+00) [K]
    Coulombic Real/kʙ       0.000000e+00 ( 0.000000e+00 +/- 0.000000e+00) [K]
    Coulombic Fourier/kʙ    0.000000e+00 ( 0.000000e+00 +/- 0.000000e+00) [K]
Molecule-molecule
    Van der Waals/kʙ       -2.217229e+05 (-2.249250e+05 +/- 0.000000e+00) [K]
    Van der Waals (Tail)/kʙ-7.137586e+03 (-7.154738e+03 +/- 0.000000e+00) [K]
    Coulombic Real/kʙ      -6.762257e+04 (-6.955299e+04 +/- 0.000000e+00) [K]
    Coulombic Fourier/kʙ   -1.027598e+04 (-1.026413e+04 +/- 0.000000e+00) [K]
    Molecule Intra/kʙ       0.000000e+00 ( 0.000000e+00 +/- 0.000000e+00) [K]

Current cycle: 2000 out of 5000
===============================================================================

Box:      23.75418   0.00000   0.00000  Average:  23.79504   0.00000   0.00000
           0.00000  23.75418   0.00000             0.00000  23.79504   0.00000
           0.00000   0.00000  23.75418             0.00000   0.00000  23.79504
Lengths:  23.75418  23.75418  23.75418  Average:  23.79504  23.79504  23.79504
Angles:   90.00000  90.00000  90.00000  Average:  90.00000  90.00000  90.00000
Rectangular boundary conditions

net charge:   0.00000000

component 0 (CO2) lambda:  0 occupancy:  1 (1.000000)
    net charge:   0.00000000 [e]

Amount of molecules per component :
-------------------------------------------------------------------------------
Component 0 (CO2)
    molecules:      2.000000e+02 molecules  (2.000000e+02 +/- 0.000000e+00)
    number density: 1.492142e-02 molec./A^3 (1.485016e-02 +/- 0.000000e+00)
    density:        1.090184e+03 kg/m^3     (1.084978e+03 +/- 0.000000e+00)

Average pressure tensor: 
-------------------------------------------------------------------------------
 1.2522e+02 -3.3347e+01 -1.8056e+01 +/- 0.0000e+00 0.0000e+00 0.0000e+00 [bar]
-3.3347e+01  1.3437e+02 -3.5609e+01 +/- 0.0000e+00 0.0000e+00 0.0000e+00 [bar]
-1.8056e+01 -3.5609e+01  1.1014e+02 +/- 0.0000e+00 0.0000e+00 0.0000e+00 [bar]
Ideal-gas pressure:   5.125720e+02 +/ 0.000000e+00 [bar]
Excess pressure:     -3.893271e+02 +/ 0.000000e+00 [bar]
Pressure:             1.232449e+02 +/ 0.000000e+00 [bar]

Total potential energy/kʙ  -3.139818e+05 (-3.120582e+05 +/- 0.000000e+00) [K]
-------------------------------------------------------------------------------
ExternalField-molecule
    Van der Waals/kʙ        0.000000e+00 ( 0.000000e+00 +/- 0.000000e+00) [K]
Framework-molecule
    Van der Waals/kʙ        0.000000e+00 ( 0.000000e+00 +/- 0.000000e+00) [K]
    Van der Waals (Tail)/kʙ 0.000000e+00 ( 0.000000e+00 +/- 0.000000e+00) [K]
    Coulombic Real/kʙ       0.000000e+00 ( 0.000000e+00 +/- 0.000000e+00) [K]
    Coulombic Fourier/kʙ    0.000000e+00 ( 0.000000e+00 +/- 0.000000e+00) [K]
Molecule-molecule
    Van der Waals/kʙ       -2.267376e+05 (-2.250161e+05 +/- 0.000000e+00) [K]
    Van der Waals (Tail)/kʙ-7.194779e+03 (-7.159091e+03 +/- 0.000000e+00) [K]
    Coulombic Real/kʙ      -6.947439e+04 (-6.959975e+04 +/- 0.000000e+00) [K]
    Coulombic Fourier/kʙ   -1.057502e+04 (-1.028328e+04 +/- 0.000000e+00) [K]
    Molecule Intra/kʙ       0.000000e+00 ( 0.000000e+00 +/- 0.000000e+00) [K]

Current cycle: 2100 out of 5000
===============================================================================

Box:      23.83722   0.00000   0.00000  Average:  23.78986   0.00000   0.00000
           0.00000  23.83722   0.00000             0.00000  23.78986   0.00000
           0.00000   0.00000  23.83722             0.00000   0.00000  23.78986
Lengths:  23.83722  23.83722  23.83722  Average:  23.78986  23.78986  23.78986
Angles:   90.00000  90.00000  90.00000  Average:  90.00000  90.00000  90.00000
Rectangular boundary conditions

net charge:   0.00000000

component 0 (CO2) lambda:  0 occupancy:  1 (1.000000)
    net charge:   0.00000000 [e]

Amount of molecules per component :
-------------------------------------------------------------------------------
Component 0 (CO2)
    molecules:      2.000000e+02 molecules  (2.000000e+02 +/- 0.000000e+00)
    number density: 1.476600e-02 molec./A^3 (1.485971e-02 +/- 0.000000e+00)
    density:        1.078829e+03 kg/m^3     (1.085676e+03 +/- 0.000000e+00)

Average pressure tensor: 
-------------------------------------------------------------------------------
 1.3048e+02 -2.2967e+01 -1.9123e+01 +/- 0.0000e+00 0.0000e+00 0.0000e+00 [bar]
-2.2967e+01  1.3821e+02 -3.3250e+01 +/- 0.0000e+00 0.0000e+00 0.0000e+00 [bar]
-1.9123e+01 -3.3250e+01  1.0780e+02 +/- 0.0000e+00 0.0000e+00 0.0000e+00 [bar]
Ideal-gas pressure:   5.129016e+02 +/ 0.000000e+00 [bar]
Excess pressure:     -3.874053e+02 +/ 0.000000e+00 [bar]
Pressure:             1.254963e+02 +/ 0.000000e+00 [bar]

Total potential energy/kʙ  -3.061822e+05 (-3.121482e+05 +/- 0.000000e+00) [K]
-------------------------------------------------------------------------------
ExternalField-molecule
    Van der Waals/kʙ        0.000000e+00 ( 0.000000e+00 +/- 0.000000e+00) [K]
Framework-molecule
    Van der Waals/kʙ        0.000000e+00 ( 0.000000e+00 +/- 0.000000e+00) [K]
    Van der Waals (Tail)/kʙ 0.000000e+00 ( 0.000000e+00 +/- 0.000000e+00) [K]
[...]
    Coulombic Fourier/kʙ    0.000000e+00 ( 0.000000e+00 +/- 0.000000e+00) [K]
Molecule-molecule
    Van der Waals/kʙ       -2.196513e+05 (-2.235741e+05 +/- 3.704015e+03) [K]
    Van der Waals (Tail)/kʙ-6.965231e+03 (-7.106125e+03 +/- 1.141595e+02) [K]
    Coulombic Real/kʙ      -7.001162e+04 (-6.904193e+04 +/- 1.379233e+03) [K]
    Coulombic Fourier/kʙ   -9.671351e+03 (-1.028430e+04 +/- 2.506360e+02) [K]
    Molecule Intra/kʙ       0.000000e+00 ( 0.000000e+00 +/- 0.000000e+00) [K]

Current cycle: 4700 out of 5000
===============================================================================

Box:      23.81376   0.00000   0.00000  Average:  23.85597   0.00000   0.00000
           0.00000  23.81376   0.00000             0.00000  23.85597   0.00000
           0.00000   0.00000  23.81376             0.00000   0.00000  23.85597
Lengths:  23.81376  23.81376  23.81376  Average:  23.85597  23.85597  23.85597
Angles:   90.00000  90.00000  90.00000  Average:  90.00000  90.00000  90.00000
Rectangular boundary conditions

net charge:   0.00000000

component 0 (CO2) lambda:  0 occupancy:  1 (1.000000)
    net charge:   0.00000000 [e]

Amount of molecules per component :
-------------------------------------------------------------------------------
Component 0 (CO2)
    molecules:      2.000000e+02 molecules  (2.000000e+02 +/- 0.000000e+00)
    number density: 1.480969e-02 molec./A^3 (1.473737e-02 +/- 2.373429e-04)
    density:        1.082022e+03 kg/m^3     (1.076738e+03 +/- 1.734068e+01)

Average pressure tensor: 
-------------------------------------------------------------------------------
 1.2268e+02 -4.1508e+00 -1.3056e+00 +/- 7.9156e+01 9.5693e+01 6.6055e+01 [bar]
-4.1508e+00  1.1176e+02  1.9538e+01 +/- 9.5693e+01 3.2846e+01 8.4506e+01 [bar]
-1.3056e+00  1.9538e+01  1.1261e+02 +/- 6.6055e+01 8.4506e+01 3.7795e+01 [bar]
Ideal-gas pressure:   5.086789e+02 +/ 8.192190e+00 [bar]
Excess pressure:     -3.929960e+02 +/ 1.456088e+01 [bar]
Pressure:             1.156829e+02 +/ 1.939622e+01 [bar]

Total potential energy/kʙ  -3.174254e+05 (-3.099516e+05 +/- 5.042491e+03) [K]
-------------------------------------------------------------------------------
ExternalField-molecule
    Van der Waals/kʙ        0.000000e+00 ( 0.000000e+00 +/- 0.000000e+00) [K]
Framework-molecule
    Van der Waals/kʙ        0.000000e+00 ( 0.000000e+00 +/- 0.000000e+00) [K]
    Van der Waals (Tail)/kʙ 0.000000e+00 ( 0.000000e+00 +/- 0.000000e+00) [K]
    Coulombic Real/kʙ       0.000000e+00 ( 0.000000e+00 +/- 0.000000e+00) [K]
    Coulombic Fourier/kʙ    0.000000e+00 ( 0.000000e+00 +/- 0.000000e+00) [K]
Molecule-molecule
    Van der Waals/kʙ       -2.248504e+05 (-2.234856e+05 +/- 3.746262e+03) [K]
    Van der Waals (Tail)/kʙ-7.140907e+03 (-7.103390e+03 +/- 1.143249e+02) [K]
    Coulombic Real/kʙ      -7.548800e+04 (-6.908350e+04 +/- 1.413403e+03) [K]
    Coulombic Fourier/kʙ   -9.946165e+03 (-1.027913e+04 +/- 2.180805e+02) [K]
    Molecule Intra/kʙ       0.000000e+00 ( 0.000000e+00 +/- 0.000000e+00) [K]

Current cycle: 4800 out of 5000
===============================================================================

Box:      24.22428   0.00000   0.00000  Average:  23.86119   0.00000   0.00000
           0.00000  24.22428   0.00000             0.00000  23.86119   0.00000
           0.00000   0.00000  24.22428             0.00000   0.00000  23.86119
Lengths:  24.22428  24.22428  24.22428  Average:  23.86119  23.86119  23.86119
Angles:   90.00000  90.00000  90.00000  Average:  90.00000  90.00000  90.00000
Rectangular boundary conditions

net charge:   0.00000000

component 0 (CO2) lambda:  0 occupancy:  1 (1.000000)
    net charge:   0.00000000 [e]

Amount of molecules per component :
-------------------------------------------------------------------------------
Component 0 (CO2)
    molecules:      2.000000e+02 molecules  (2.000000e+02 +/- 0.000000e+00)
    number density: 1.406946e-02 molec./A^3 (1.472782e-02 +/- 2.411395e-04)
    density:        1.027939e+03 kg/m^3     (1.076040e+03 +/- 1.761806e+01)

Average pressure tensor: 
-------------------------------------------------------------------------------
 1.2192e+02 -5.5926e+00 -9.3111e-01 +/- 7.9057e+01 9.5995e+01 6.4833e+01 [bar]
-5.5926e+00  1.1322e+02  2.1344e+01 +/- 9.5995e+01 3.3831e+01 8.3114e+01 [bar]
-9.3111e-01  2.1344e+01  1.1204e+02 +/- 6.4833e+01 8.3114e+01 3.3080e+01 [bar]
Ideal-gas pressure:   5.083492e+02 +/ 8.323233e+00 [bar]
Excess pressure:     -3.926235e+02 +/ 1.481173e+01 [bar]
Pressure:             1.157257e+02 +/ 1.932585e+01 [bar]

Total potential energy/kʙ  -2.976325e+05 (-3.097953e+05 +/- 5.051475e+03) [K]
-------------------------------------------------------------------------------
ExternalField-molecule
    Van der Waals/kʙ        0.000000e+00 ( 0.000000e+00 +/- 0.000000e+00) [K]
Framework-molecule
    Van der Waals/kʙ        0.000000e+00 ( 0.000000e+00 +/- 0.000000e+00) [K]
    Van der Waals (Tail)/kʙ 0.000000e+00 ( 0.000000e+00 +/- 0.000000e+00) [K]
    Coulombic Real/kʙ       0.000000e+00 ( 0.000000e+00 +/- 0.000000e+00) [K]
    Coulombic Fourier/kʙ    0.000000e+00 ( 0.000000e+00 +/- 0.000000e+00) [K]
Molecule-molecule
    Van der Waals/kʙ       -2.142142e+05 (-2.233015e+05 +/- 3.882885e+03) [K]
    Van der Waals (Tail)/kʙ-6.783983e+03 (-7.098243e+03 +/- 1.164669e+02) [K]
    Coulombic Real/kʙ      -6.628552e+04 (-6.911536e+04 +/- 1.425909e+03) [K]
    Coulombic Fourier/kʙ   -1.034873e+04 (-1.028024e+04 +/- 2.094639e+02) [K]
    Molecule Intra/kʙ       0.000000e+00 ( 0.000000e+00 +/- 0.000000e+00) [K]

Current cycle: 4900 out of 5000
===============================================================================

Box:      24.14174   0.00000   0.00000  Average:  23.87133   0.00000   0.00000
           0.00000  24.14174   0.00000             0.00000  23.87133   0.00000
           0.00000   0.00000  24.14174             0.00000   0.00000  23.87133
Lengths:  24.14174  24.14174  24.14174  Average:  23.87133  23.87133  23.87133
Angles:   90.00000  90.00000  90.00000  Average:  90.00000  90.00000  90.00000
Rectangular boundary conditions

net charge:   0.00000000

component 0 (CO2) lambda:  0 occupancy:  1 (1.000000)
    net charge:   0.00000000 [e]

Amount of molecules per component :
-------------------------------------------------------------------------------
Component 0 (CO2)
    molecules:      2.000000e+02 molecules  (2.000000e+02 +/- 0.000000e+00)
    number density: 1.421427e-02 molec./A^3 (1.470973e-02 +/- 2.554205e-04)
    density:        1.038519e+03 kg/m^3     (1.074718e+03 +/- 1.866146e+01)

Average pressure tensor: 
-------------------------------------------------------------------------------
 1.1901e+02 -8.1289e+00 -1.6339e+00 +/- 8.1335e+01 9.6864e+01 6.2544e+01 [bar]
-8.1289e+00  1.1250e+02  1.8491e+01 +/- 9.6864e+01 3.3059e+01 7.1237e+01 [bar]
-1.6339e+00  1.8491e+01  1.1192e+02 +/- 6.2544e+01 7.1237e+01 3.0665e+01 [bar]
Ideal-gas pressure:   5.077247e+02 +/ 8.816161e+00 [bar]
Excess pressure:     -3.932486e+02 +/ 1.409202e+01 [bar]
Pressure:             1.144761e+02 +/ 1.891696e+01 [bar]

Total potential energy/kʙ  -2.942353e+05 (-3.093915e+05 +/- 5.266425e+03) [K]
-------------------------------------------------------------------------------
ExternalField-molecule
    Van der Waals/kʙ        0.000000e+00 ( 0.000000e+00 +/- 0.000000e+00) [K]
Framework-molecule
    Van der Waals/kʙ        0.000000e+00 ( 0.000000e+00 +/- 0.000000e+00) [K]
    Van der Waals (Tail)/kʙ 0.000000e+00 ( 0.000000e+00 +/- 0.000000e+00) [K]
    Coulombic Real/kʙ       0.000000e+00 ( 0.000000e+00 +/- 0.000000e+00) [K]
    Coulombic Fourier/kʙ    0.000000e+00 ( 0.000000e+00 +/- 0.000000e+00) [K]
Molecule-molecule
    Van der Waals/kʙ       -2.117019e+05 (-2.230073e+05 +/- 4.191580e+03) [K]
    Van der Waals (Tail)/kʙ-6.853806e+03 (-7.089839e+03 +/- 1.231570e+02) [K]
    Coulombic Real/kʙ      -6.560751e+04 (-6.902967e+04 +/- 1.275987e+03) [K]
    Coulombic Fourier/kʙ   -1.007206e+04 (-1.026461e+04 +/- 1.759164e+02) [K]
    Molecule Intra/kʙ       0.000000e+00 ( 0.000000e+00 +/- 0.000000e+00) [K]


Energy statistics             |  Energy [K]   | Recomputed [K]|  Drift [K]    |
===============================================================================
Total potential energy/kʙ     | -3.011452e+05 | -3.011452e+05 | -1.531420e-09 |
    external field VDW/kʙ     |  0.000000e+00 |  0.000000e+00 |  0.000000e+00 |
    external field Real/kʙ    |  0.000000e+00 |  0.000000e+00 |  0.000000e+00 |
    framework-molecule VDW/kʙ |  0.000000e+00 |  0.000000e+00 |  0.000000e+00 |
    framework-molecule Real/kʙ|  0.000000e+00 |  0.000000e+00 |  0.000000e+00 |
    molecule-molecule VDW/kʙ  | -2.196382e+05 | -2.196382e+05 | -1.470163e-09 |
    molecule-molecule Real/kʙ | -6.497499e+04 | -6.497499e+04 | -7.875874e-11 |
    Van der Waals (Tail)/kʙ   | -6.865115e+03 | -6.865115e+03 |  0.000000e+00 |
    Ewald Fourier/kʙ          |  8.486276e+03 |  8.486276e+03 |  1.750194e-11 |
    Ewald self/kʙ             | -4.023739e+06 | -4.023739e+06 |  0.000000e+00 |
    Ewald exclusion/kʙ        |  4.005586e+06 |  4.005586e+06 |  0.000000e+00 |
    intra VDW/kʙ              |  0.000000e+00 |  0.000000e+00 |  0.000000e+00 |
    intra Coulombic/kʙ        |  0.000000e+00 |  0.000000e+00 |  0.000000e+00 |
    polarization/kʙ           |  0.000000e+00 |  0.000000e+00 |  0.000000e+00 |
    dU/dlambda VDW/kʙ         |  0.000000e+00 |  0.000000e+00 |  0.000000e+00 |
    dU/dlambda Real/kʙ        |  0.000000e+00 |  0.000000e+00 |  0.000000e+00 |
    dU/dlambda Ewald/kʙ       |  0.000000e+00 |  0.000000e+00 |  0.000000e+00 |
-------------------------------------------------------------------------------


Monte-Carlo moves statistics
===============================================================================

    Volume change        all:                6702
    Volume change        total:              6702
    Volume change        constructed:        6702
    Volume change        accepted:           1991
    Volume change        fraction:       0.297075
    Volume change        max-change:     0.050000

Component 0 [CO2]
    Reinsertion (CBMC)   all:              330806
    Reinsertion (CBMC)   total:            330806
    Reinsertion (CBMC)   constructed:      290547
    Reinsertion (CBMC)   accepted:           4082
    Reinsertion (CBMC)   fraction:       0.012340
    Reinsertion (CBMC)   max-change:     0.000000

    Translation          all:              330835
    Translation          total:            110492     110213     110130
    Translation          constructed:      110492     110213     110130
    Translation          accepted:          65042      60126      72820
    Translation          fraction:       0.588658   0.545544   0.661219
    Translation          max-change:     0.500000   0.571429   0.392157

    Rotation             all:              331657
    Rotation             total:            110603     110770     110284
    Rotation             constructed:      110602     110770     109746
    Rotation             accepted:          49068      54448      33587
    Rotation             fraction:       0.443641   0.491541   0.304550
    Rotation             max-change:     0.815592   0.692641   1.371429



Production run counting of the MC moves summed over systems and components
===============================================================================

Volume change                          6702 (0.6702 [%])
Reinsertion (CBMC)                   330806 (33.0806 [%])
Translation                          330835 (33.0835 [%])
Rotation                             331657 (33.1657 [%])

Production count MC-steps:          1000000 [-]
               All summed:          1000000 [-]
               difference:                0 [-]


Production run CPU timings of the MC moves
===============================================================================

Component 0 CO2

Rotation                             48.252066 [s]
    Ewald                            18.565227 [s]
    ExternalField-Molecule            0.011833 [s]
    Framework-Molecule                0.011839 [s]
    Molecule-Molecule                28.285611 [s]
    Overhead                          1.377556 [s]

Reinsertion (CBMC)                  192.159251 [s]
    Ewald                            16.428385 [s]
    NonEwald                        175.417296 [s]
    Overhead                          0.313570 [s]

Translation                          46.875479 [s]
    Ewald                            18.538858 [s]
    ExternalField-Molecule            0.012061 [s]
    Framework-Molecule                0.021529 [s]
    Molecule-Molecule                26.503203 [s]
    Overhead                          1.799828 [s]



Volume change                         43.669173 [s]
    Ewald                             14.775912 [s]
    NonEwald                          27.034422 [s]
    Tail                               1.629484 [s]

Property sampling                     0.281987 [s]
Energy/pressure sampling:             6.509745 [s]


Production run CPU timings of the MC moves summed over systems and components
===============================================================================


Translation                          46.875479 [s]
    Ewald                            18.538858 [s]
    ExternalField-Molecule            0.012061 [s]
    Framework-Molecule                0.021529 [s]
    Molecule-Molecule                26.503203 [s]
    Overhead                          1.799828 [s]

Rotation                             48.252066 [s]
    Ewald                            18.565227 [s]
    ExternalField-Molecule            0.011833 [s]
    Framework-Molecule                0.011839 [s]
    Molecule-Molecule                28.285611 [s]
    Overhead                          1.377556 [s]

Volume change                        43.669173 [s]
    Ewald                            14.775912 [s]
    NonEwald                         27.034422 [s]
    Tail                              1.629484 [s]
    Overhead                          0.229355 [s]

Reinsertion (CBMC)                  192.159251 [s]
    Ewald                            16.428385 [s]
    NonEwald                        175.417296 [s]
    Overhead                          0.313570 [s]

Property sampling:                    0.281987 [s]
Energy/pressure sampling:             6.509745 [s]

Production simulation time:         338.538759 [s]
                All summed:         337.747701 [s]
                  Overhead:           0.791058 [s]


Initalization simulation time:       64.123614 [s]
Equilibration simulation time:        0.000000 [s]
Production simulation time:         338.538759 [s]
Total simulation time:              402.662373 [s]


Energy averages and statistics:
===============================================================================

Framework-molecule energy:
-------------------------------------------------------------------------------



Framework-molecule energy contributions per energy type:
-------------------------------------------------------------------------------



Inter-molecular energy:
-------------------------------------------------------------------------------

    Inter-molecular energy/kʙ 0-0 [CO2-CO2]:
    ---------------------------------------------------------------------------
        Block[  0] -3.119414e+05
        Block[  1] -3.121557e+05
        Block[  2] -3.126262e+05
        Block[  3] -3.028847e+05
        Block[  4] -3.062361e+05
        -----------------------------------------------------------------------
        Average  -3.091688e+05 +/-  5.434634e+03 [K]



Inter-molecular energy contributions per energy type:
-------------------------------------------------------------------------------

    Van der Waals energy/kʙ 0-0 [CO2-CO2]:
    ---------------------------------------------------------------------------
        Block[  0] -2.248596e+05
        Block[  1] -2.251553e+05
        Block[  2] -2.260901e+05
        Block[  3] -2.186086e+05
        Block[  4] -2.195393e+05
        -----------------------------------------------------------------------
        Average  -2.228506e+05 +/-  4.336303e+03 [K]

    VDW Tail-Correction energy/kʙ 0-0 [CO2-CO2]:
    ---------------------------------------------------------------------------
        Block[  0] -7.156198e+03
        Block[  1] -7.161627e+03
        Block[  2] -7.157228e+03
        Block[  3] -6.946142e+03
        Block[  4] -7.003604e+03
        -----------------------------------------------------------------------
        Average  -7.084959e+03 +/-  1.273101e+02 [K]

    Coulomb Real energy/kʙ 0-0 [CO2-CO2]:
    ---------------------------------------------------------------------------
        Block[  0] -6.953141e+04
        Block[  1] -6.966934e+04
        Block[  2] -6.905800e+04
        Block[  3] -6.726050e+04
        Block[  4] -6.937778e+04
        -----------------------------------------------------------------------
        Average  -6.897941e+04 +/-  1.225885e+03 [K]

    Coulomb Fourier energy/kʙ 0-0 [CO2-CO2]:
    ---------------------------------------------------------------------------
        Block[  0] -1.039423e+04
        Block[  1] -1.016942e+04
        Block[  2] -1.032090e+04
        Block[  3] -1.006942e+04
        Block[  4] -1.031545e+04
        -----------------------------------------------------------------------
        Average  -1.025388e+04 +/-  1.632203e+02 [K]


Total energy/kʙ
-------------------------------------------------------------------------------
    Block[  0] -3.119414e+05
    Block[  1] -3.121557e+05
    Block[  2] -3.126262e+05
    Block[  3] -3.028847e+05
    Block[  4] -3.062361e+05
    ---------------------------------------------------------------------------
    Average  -3.091688e+05 +/-  5.434634e+03 [K]

Pressure averages and statistics:
===============================================================================

Average pressure tensor: 
-------------------------------------------------------------------------------
 1.1433e+02 -9.3392e+00  3.7473e+00 +/- 8.5937e+01 9.7223e+01 6.8885e+01 [bar]
-9.3392e+00  1.1321e+02  1.9596e+01 +/- 9.7223e+01 3.3379e+01 7.0294e+01 [bar]
 3.7473e+00  1.9596e+01  1.1032e+02 +/- 6.8885e+01 7.0294e+01 2.5825e+01 [bar]

    Block[  0]  5.123567e+07
    Block[  1]  5.127849e+07
    Block[  2]  5.127096e+07
    Block[  3]  4.974124e+07
    Block[  4]  5.016229e+07
    ---------------------------------------------------------------------------
    Ideal gas pressure   5.073773e+07 +/-  5.479688e-02 [Pa]
                         5.073773e+02 +/-  9.099242e+00 [bar]


    Block[  0] -4.028401e+07
    Block[  1] -3.757180e+07
    Block[  2] -3.959039e+07
    Block[  3] -4.026414e+07
    Block[  4] -3.966849e+07
    ---------------------------------------------------------------------------
    Excess pressure  -3.947577e+07 +/-  1.381064e+06 [Pa]
                     -3.947577e+02 +/-  1.381064e+01 [bar]


    Block[  0]  1.095165e+07
    Block[  1]  1.370669e+07
    Block[  2]  1.168057e+07
    Block[  3]  9.477097e+06
    Block[  4]  1.049380e+07
    ---------------------------------------------------------------------------
    Pressure average   1.126196e+07 +/-  1.965283e+06 [Pa]
                       1.126196e+02 +/-  1.965283e+01 [bar]


Enthalpy of adsorption
===============================================================================

No fluctuating components present.


Densities
===============================================================================

Component 0 (CO2)
    Block[  0] 200
    Block[  1] 200
    Block[  2] 200
    Block[  3] 200
    Block[  4] 200
    -----------------------------------------------------------------------
    Density average   2.000000e+02 +/-  0.000000e+00 [molecules]
    Density average   1.469966e-02 +/-  2.636219e-04 [molec/A^3]
    Density average   1.073982e+03 +/-  1.926067e+01 [kg.m⁻³]

