Compiler and run-time data
===============================================================================
RASPA 3.0.4

Random seed: 3848428967

Compiled as a 64-bits application
Compiler: gcc Ubuntu Clang 18.1.3 (1ubuntu1)
Compile Date = Mar 15 2025, Compile Time = 19:39:45

2025-06-03 11:00:44.429982
Simulation started on Tue, Jun 03
The start time was 11:00:00

Hostname:    c109
OS type:     Linux on x86_64
OS release:  6.8.0-58-generic
OS version:  #60-Ubuntu SMP PREEMPT_DYNAMIC Fri Mar 14 18:29:48 UTC 2025


Mutual consistent basic set of units:
===============================================================================

Unit of temperature: 1 [K]
Unit of length:      1e-10 [m]
Unit of time:        1e-12 [s]
Unit of mass:        1.6605402e-27 [kg]
Unit of charge:      1.60217733e-19 [C/particle]


Boltzmann constant (internal units):          0.8314464919307584 [-]
represents conversion from energy (internal units) to temperature (in Kelvin)

Derived units and their conversion factors:
===============================================================================

Unit of energy:                           1.6605402000000002e-23 [J]
Unit of energy:                           10.000008872307538 [J.mol⁻¹]
Unit of velocity:                         100 [m.s⁻¹]
Unit of force:                            1.6605402000000002e-13 [N]
Unit of diffusion:                        1.0000000000000002e-08 [m².s⁻¹]
Unit of acceleration:                     1.0000000000000002e-08 [m².s⁻¹]
Unit of torque:                           1.6605402000000002e-23 [N.m]
Unit of pressure:                         16605402 [Pa]
Unit of volume:                           1e-30 [m³]
Unit of density:                          1660.5402 [kg.m⁻³]
Unit of dynamic viscosity:                1.6605401999999997e-05 [N.s.m⁻²]
Unit of enthalpy:                         1.6605402000000002e-23 [J]
Unit of polarizability:                   1.5458657349975198e-35 [-]
Unit of Coulomb potential:                167101.08000665612 [K]
Unit of dielectric constant:              1.5458657349975193e-05 [s².C².kg⁻¹.m⁻³]
Unit of dipole moment:                    1.60217733e-29 [C.m]
Unit of Debye:                            4.803206799099162 [C.m]
Unit of electric potential:               0.00010364272224473431 [V]
Unit of electric field:                   1036427.222447343 [V.m⁻¹]
Unit of isothermal compressibility:       6.02213665167516e-08 [Pa⁻¹]
Unit of heat capacity:                    10.000008872307538 [J.mol⁻¹.K⁻¹]
Unit of volumetric expansion coefficient: 1 [K⁻¹]


Internal conversion factors:
===============================================================================

Energy (internal units) to Kelvin:      1.202724284692786 [-]
Kelvin to energy (internal units):      0.8314457542157567 [-]


System definitions
===============================================================================

Temperature:          220 [K]
Beta:                 0.005466923716160299 [-]
Pressure:             0 [Pa]
Helium void fraction: 1 [-]

Box:      30.00000   0.00000   0.00000
           0.00000  30.00000   0.00000
           0.00000   0.00000  30.00000
Lengths:  30.00000  30.00000  30.00000
Angles:   90.00000  90.00000  90.00000
Rectangular boundary conditions



Property measurement settings
===============================================================================




Pseudo-atoms
===============================================================================

  0 - C_co2    framework-atom: false
  1 - O_co2    framework-atom: false

  0 - C_co2    mass: 12.00000, charge:  0.70000
  1 - O_co2    mass: 15.99940, charge: -0.35000

  0 - C_co2    polarizability:  0.00000
  1 - O_co2    polarizability:  0.00000

  0 - J. J. Potoff et al., AIChE J. 2001, 47, 1676–1682.
  1 - J. J. Potoff et al., AIChE J. 2001, 47, 1676–1682.

Force field status
===============================================================================

Cutoff Framework-Molecule VDW:  11.00000 [Å]
Cutoff Molecule-Molecule VDW:   11.00000 [Å]
Cutoff Coulomb:                 11.00000 [Å]

Overlap-criteria VDW:           1.000000e+05 [K]

C_co2    - C_co2    Lennard-Jones p₀/kʙ:  27.00000 [K], p₁:  2.80000 [Å]
                                  shift:   0.00000 [K], tailcorrections: true
C_co2    - O_co2    Lennard-Jones p₀/kʙ:  46.18441 [K], p₁:  2.92500 [Å]
                                  shift:   0.00000 [K], tailcorrections: true
O_co2    - O_co2    Lennard-Jones p₀/kʙ:  79.00000 [K], p₁:  3.05000 [Å]
                                  shift:   0.00000 [K], tailcorrections: true

Ewald precision: 1e-06
Ewald alpha: 0.2903408740940883
Ewald k-vectors: 9 9 9


Component definitions
===============================================================================

Component 0 [CO2]

    Type: Adsorbate

    Critical temperature:  304.1282 [K]
    Critical pressure:     7377300 [Pa]
    Acentric factor:       0.22394 [-]

    Mol-fraction:                 1 [-]
    Swappable:                   true

    Mass:                         43.9988 [-]
    Fugacity coefficient:         -nan [-]
    Bulk fluid density:           0 [-]
    Compressibility:              1 [-]
    Excess molecules:             0 [-]

    Number Of Atoms:    3
    CBMC starting bead: 0
      0: O_co2  position  0.00000 -0.00000  1.16000, charge -0.35000
      1: C_co2  position  0.00000 -0.00000  0.00000, charge  0.70000
      2: O_co2  position  0.00000 -0.00000 -1.16000, charge -0.35000
    Diagonalized inertia-vector:      43.05758528 43.05758528 0.00000000
    Translational degrees of freedom: 3
    Rotational degrees of freedom:    2
    Shape of the molecule is: 'Linear'
    Net-charge:        0.00000000 [e]

    Move probabilities:
    Translation:                   0.199203 [-]
    Random translation:            0.000000 [-]
    Rotation:                      0.199203 [-]
    Random rotation:               0.000000 [-]
    Volume change:                 0.000000 [-]
    Reinsertion (CBMC):            0.199203 [-]
    Identity change (CBMC):        0.000000 [-]
    Swap:                          0.000000 [-]
    Swap (CBMC):                   0.000000 [-]
    Swap (CFCMC):                  0.000000 [-]
    Swap (CB/CFCMC):               0.000000 [-]
    Gibbs volume:                  0.003984 [-]
    Gibbs swap (CBMC):             0.398406 [-]
    Gibbs swap (CFCMC):            0.000000 [-]
    Widom:                         0.000000 [-]
    Widom (CFCMC):                 0.000000 [-]
    Widom (CB/CFCMC):              0.000000 [-]
    Parallel tempering:            0.000000 [-]
    Hybrid MC:                     0.000000 [-]

    number of blocking-pockets: 0

    number of bonds: 0





Number of pseudo-atoms
===============================================================================

Component   0 (CO2)
-------------------------------------------------------------------------------
    index   0 (C_co2): 210 atoms
    index   1 (O_co2): 420 atoms

Total number of pseudo-atoms:
-------------------------------------------------------------------------------
    index   0 (C_co2): 210 atoms
    index   1 (O_co2): 420 atoms




Energy status Recomputed from scratch
===============================================================================

Total potential energy/kʙ       -8.705814e+04 [K]
    external field VDW/kʙ        0.000000e+00 [K]
    external field Real/kʙ       0.000000e+00 [K]
    framework-molecule VDW/kʙ    0.000000e+00 [K]
    framework-molecule Real/kʙ   0.000000e+00 [K]
    molecule-molecule VDW/kʙ    -6.453462e+04 [K]
    molecule-molecule Real/kʙ   -1.625374e+04 [K]
    Van der Waals (Tail)/kʙ     -3.937786e+03 [K]
    Ewald Fourier/kʙ             1.672875e+04 [K]
    Ewald self/kʙ               -4.224926e+06 [K]
    Ewald exclusion/kʙ           4.205866e+06 [K]
    intra VDW/kʙ                 0.000000e+00 [K]
    intra Coulombic/kʙ           0.000000e+00 [K]
    polarization/kʙ              0.000000e+00 [K]
    dU/dlambda VDW/kʙ            0.000000e+00 [K]
    dU/dlambda Real/kʙ           0.000000e+00 [K]
    dU/dlambda Ewald/kʙ          0.000000e+00 [K]





Initialization: Current cycle: 0 out of 2000
===============================================================================

Box:      30.00000   0.00000   0.00000
           0.00000  30.00000   0.00000
           0.00000   0.00000  30.00000
Lengths:  30.00000  30.00000  30.00000
Angles:   90.00000  90.00000  90.00000
Rectangular boundary conditions

net charge:   0.00000000

component   0 (CO2) lambda:  0 occupancy:  0 (0.000000)
    net charge:   0.00000000 [e]

Amount of molecules per component :
-------------------------------------------------------------------------------
Component 0 (CO2)
    molecules:         2.130000e+02 molecules
    number density:    7.888889e-03 molec/A^3
    density:           5.763757e+02 kg/m^3

Total potential energy/kʙ       -1.489676e+05 [K]
-------------------------------------------------------------------------------
    external field VDW/kʙ        0.000000e+00 [K]
    external field Real/kʙ       0.000000e+00 [K]
    framework-molecule VDW/kʙ    0.000000e+00 [K]
    framework-molecule Real/kʙ   0.000000e+00 [K]
    molecule-molecule VDW/kʙ    -1.229009e+05 [K]
    molecule-molecule Real/kʙ   -1.888237e+04 [K]
    Van der Waals (Tail)/kʙ     -4.051098e+03 [K]
    Ewald Fourier/kʙ             1.619978e+04 [K]
    Ewald self/kʙ               -4.285282e+06 [K]
    Ewald exclusion/kʙ           4.265949e+06 [K]
    intra VDW/kʙ                 0.000000e+00 [K]
    intra Coulombic/kʙ           0.000000e+00 [K]
    polarization/kʙ              0.000000e+00 [K]
    dU/dlambda VDW/kʙ            0.000000e+00 [K]
    dU/dlambda Real/kʙ           0.000000e+00 [K]
    dU/dlambda Ewald/kʙ          0.000000e+00 [K]


Initialization: Current cycle: 100 out of 2000
===============================================================================

Box:      29.71937   0.00000   0.00000
           0.00000  29.71937   0.00000
           0.00000   0.00000  29.71937
Lengths:  29.71937  29.71937  29.71937
Angles:   90.00000  90.00000  90.00000
Rectangular boundary conditions

net charge:   0.00000000

component   0 (CO2) lambda:  0 occupancy:  0 (0.000000)
    net charge:   0.00000000 [e]

Amount of molecules per component :
-------------------------------------------------------------------------------
Component 0 (CO2)
    molecules:         2.420000e+02 molecules
    number density:    9.219274e-03 molec/A^3
    density:           6.735759e+02 kg/m^3

Total potential energy/kʙ       -2.827970e+05 [K]
-------------------------------------------------------------------------------
    external field VDW/kʙ        0.000000e+00 [K]
    external field Real/kʙ       0.000000e+00 [K]
    framework-molecule VDW/kʙ    0.000000e+00 [K]
    framework-molecule Real/kʙ   0.000000e+00 [K]
    molecule-molecule VDW/kʙ    -2.037534e+05 [K]
    molecule-molecule Real/kʙ   -6.395919e+04 [K]
    Van der Waals (Tail)/kʙ     -5.378849e+03 [K]
    Ewald Fourier/kʙ             1.225974e+04 [K]
    Ewald self/kʙ               -4.868725e+06 [K]
    Ewald exclusion/kʙ           4.846759e+06 [K]
    intra VDW/kʙ                 0.000000e+00 [K]
    intra Coulombic/kʙ           0.000000e+00 [K]
    polarization/kʙ              0.000000e+00 [K]
    dU/dlambda VDW/kʙ            0.000000e+00 [K]
    dU/dlambda Real/kʙ           0.000000e+00 [K]
    dU/dlambda Ewald/kʙ          0.000000e+00 [K]


Initialization: Current cycle: 200 out of 2000
===============================================================================

Box:      29.35253   0.00000   0.00000
           0.00000  29.35253   0.00000
           0.00000   0.00000  29.35253
Lengths:  29.35253  29.35253  29.35253
Angles:   90.00000  90.00000  90.00000
Rectangular boundary conditions

net charge:   0.00000000

component   0 (CO2) lambda:  0 occupancy:  0 (0.000000)
    net charge:   0.00000000 [e]

Amount of molecules per component :
-------------------------------------------------------------------------------
Component 0 (CO2)
    molecules:         2.470000e+02 molecules
    number density:    9.766978e-03 molec/A^3
    density:           7.135921e+02 kg/m^3

Total potential energy/kʙ       -3.222588e+05 [K]
-------------------------------------------------------------------------------
    external field VDW/kʙ        0.000000e+00 [K]
    external field Real/kʙ       0.000000e+00 [K]
    framework-molecule VDW/kʙ    0.000000e+00 [K]
    framework-molecule Real/kʙ   0.000000e+00 [K]
    molecule-molecule VDW/kʙ    -2.301766e+05 [K]
    molecule-molecule Real/kʙ   -7.569968e+04 [K]
    Van der Waals (Tail)/kʙ     -5.816135e+03 [K]
    Ewald Fourier/kʙ             1.185264e+04 [K]
    Ewald self/kʙ               -4.969318e+06 [K]
    Ewald exclusion/kʙ           4.946899e+06 [K]
    intra VDW/kʙ                 0.000000e+00 [K]
    intra Coulombic/kʙ           0.000000e+00 [K]
    polarization/kʙ              0.000000e+00 [K]
    dU/dlambda VDW/kʙ            0.000000e+00 [K]
    dU/dlambda Real/kʙ           0.000000e+00 [K]
    dU/dlambda Ewald/kʙ          0.000000e+00 [K]


Initialization: Current cycle: 300 out of 2000
===============================================================================

Box:      29.26697   0.00000   0.00000
           0.00000  29.26697   0.00000
           0.00000   0.00000  29.26697
Lengths:  29.26697  29.26697  29.26697
Angles:   90.00000  90.00000  90.00000
Rectangular boundary conditions

net charge:   0.00000000

component   0 (CO2) lambda:  0 occupancy:  0 (0.000000)
    net charge:   0.00000000 [e]

Amount of molecules per component :
-------------------------------------------------------------------------------
Component 0 (CO2)
    molecules:         2.440000e+02 molecules
    number density:    9.733215e-03 molec/A^3
    density:           7.111254e+02 kg/m^3

Total potential energy/kʙ       -3.191586e+05 [K]
-------------------------------------------------------------------------------
    external field VDW/kʙ        0.000000e+00 [K]
    external field Real/kʙ       0.000000e+00 [K]
    framework-molecule VDW/kʙ    0.000000e+00 [K]
    framework-molecule Real/kʙ   0.000000e+00 [K]
    molecule-molecule VDW/kʙ    -2.278308e+05 [K]
    molecule-molecule Real/kʙ   -7.437294e+04 [K]
    Van der Waals (Tail)/kʙ     -5.725632e+03 [K]
    Ewald Fourier/kʙ             1.091755e+04 [K]
    Ewald self/kʙ               -4.908962e+06 [K]
    Ewald exclusion/kʙ           4.886815e+06 [K]
    intra VDW/kʙ                 0.000000e+00 [K]
    intra Coulombic/kʙ           0.000000e+00 [K]
    polarization/kʙ              0.000000e+00 [K]
    dU/dlambda VDW/kʙ            0.000000e+00 [K]
    dU/dlambda Real/kʙ           0.000000e+00 [K]
    dU/dlambda Ewald/kʙ          0.000000e+00 [K]


Initialization: Current cycle: 400 out of 2000
===============================================================================

Box:      29.07493   0.00000   0.00000
           0.00000  29.07493   0.00000
           0.00000   0.00000  29.07493
Lengths:  29.07493  29.07493  29.07493
Angles:   90.00000  90.00000  90.00000
Rectangular boundary conditions

net charge:   0.00000000

component   0 (CO2) lambda:  0 occupancy:  0 (0.000000)
    net charge:   0.00000000 [e]

Amount of molecules per component :
-------------------------------------------------------------------------------
Component 0 (CO2)
    molecules:         2.440000e+02 molecules
    number density:    9.927362e-03 molec/A^3
    density:           7.253100e+02 kg/m^3

Total potential energy/kʙ       -3.167745e+05 [K]
-------------------------------------------------------------------------------
    external field VDW/kʙ        0.000000e+00 [K]
    external field Real/kʙ       0.000000e+00 [K]
    framework-molecule VDW/kʙ    0.000000e+00 [K]
    framework-molecule Real/kʙ   0.000000e+00 [K]
    molecule-molecule VDW/kʙ    -2.300179e+05 [K]
    molecule-molecule Real/kʙ   -7.029473e+04 [K]
    Van der Waals (Tail)/kʙ     -5.839840e+03 [K]
    Ewald Fourier/kʙ             1.152477e+04 [K]
    Ewald self/kʙ               -4.908962e+06 [K]
    Ewald exclusion/kʙ           4.886815e+06 [K]
    intra VDW/kʙ                 0.000000e+00 [K]
    intra Coulombic/kʙ           0.000000e+00 [K]
    polarization/kʙ              0.000000e+00 [K]
    dU/dlambda VDW/kʙ            0.000000e+00 [K]
    dU/dlambda Real/kʙ           0.000000e+00 [K]
    dU/dlambda Ewald/kʙ          0.000000e+00 [K]


Initialization: Current cycle: 500 out of 2000
===============================================================================

Box:      28.62458   0.00000   0.00000
           0.00000  28.62458   0.00000
           0.00000   0.00000  28.62458
Lengths:  28.62458  28.62458  28.62458
Angles:   90.00000  90.00000  90.00000
Rectangular boundary conditions

net charge:   0.00000000

component   0 (CO2) lambda:  0 occupancy:  0 (0.000000)
    net charge:   0.00000000 [e]

Amount of molecules per component :
-------------------------------------------------------------------------------
Component 0 (CO2)
    molecules:         2.450000e+02 molecules
    number density:    1.044597e-02 molec/A^3
    density:           7.632007e+02 kg/m^3

Total potential energy/kʙ       -3.305140e+05 [K]
-------------------------------------------------------------------------------
    external field VDW/kʙ        0.000000e+00 [K]
    external field Real/kʙ       0.000000e+00 [K]
    framework-molecule VDW/kʙ    0.000000e+00 [K]
    framework-molecule Real/kʙ   0.000000e+00 [K]
    molecule-molecule VDW/kʙ    -2.370832e+05 [K]
    molecule-molecule Real/kʙ   -7.755006e+04 [K]
    Van der Waals (Tail)/kʙ     -6.170101e+03 [K]
    Ewald Fourier/kʙ             1.252693e+04 [K]
    Ewald self/kʙ               -4.929081e+06 [K]
    Ewald exclusion/kʙ           4.906843e+06 [K]
    intra VDW/kʙ                 0.000000e+00 [K]
    intra Coulombic/kʙ           0.000000e+00 [K]
    polarization/kʙ              0.000000e+00 [K]
    dU/dlambda VDW/kʙ            0.000000e+00 [K]
    dU/dlambda Real/kʙ           0.000000e+00 [K]
    dU/dlambda Ewald/kʙ          0.000000e+00 [K]


Initialization: Current cycle: 600 out of 2000
===============================================================================

Box:      28.04890   0.00000   0.00000
           0.00000  28.04890   0.00000
           0.00000   0.00000  28.04890
Lengths:  28.04890  28.04890  28.04890
Angles:   90.00000  90.00000  90.00000
Rectangular boundary conditions

net charge:   0.00000000

component   0 (CO2) lambda:  0 occupancy:  0 (0.000000)
    net charge:   0.00000000 [e]

Amount of molecules per component :
-------------------------------------------------------------------------------
Component 0 (CO2)
    molecules:         2.440000e+02 molecules
    number density:    1.105713e-02 molec/A^3
    density:           8.078528e+02 kg/m^3

Total potential energy/kʙ       -3.298122e+05 [K]
-------------------------------------------------------------------------------
    external field VDW/kʙ        0.000000e+00 [K]
    external field Real/kʙ       0.000000e+00 [K]
    framework-molecule VDW/kʙ    0.000000e+00 [K]
    framework-molecule Real/kʙ   0.000000e+00 [K]
    molecule-molecule VDW/kʙ    -2.353866e+05 [K]
    molecule-molecule Real/kʙ   -7.646830e+04 [K]
    Van der Waals (Tail)/kʙ     -6.504434e+03 [K]
    Ewald Fourier/kʙ             1.069397e+04 [K]
    Ewald self/kʙ               -4.908962e+06 [K]
    Ewald exclusion/kʙ           4.886815e+06 [K]
    intra VDW/kʙ                 0.000000e+00 [K]
    intra Coulombic/kʙ           0.000000e+00 [K]
    polarization/kʙ              0.000000e+00 [K]
    dU/dlambda VDW/kʙ            0.000000e+00 [K]
    dU/dlambda Real/kʙ           0.000000e+00 [K]
    dU/dlambda Ewald/kʙ          0.000000e+00 [K]


Initialization: Current cycle: 700 out of 2000
===============================================================================

Box:      27.82924   0.00000   0.00000
           0.00000  27.82924   0.00000
           0.00000   0.00000  27.82924
Lengths:  27.82924  27.82924  27.82924
Angles:   90.00000  90.00000  90.00000
Rectangular boundary conditions

net charge:   0.00000000

component   0 (CO2) lambda:  0 occupancy:  0 (0.000000)
    net charge:   0.00000000 [e]

Amount of molecules per component :
-------------------------------------------------------------------------------
Component 0 (CO2)
    molecules:         2.490000e+02 molecules
    number density:    1.155301e-02 molec/A^3
    density:           8.440827e+02 kg/m^3

Total potential energy/kʙ       -3.430778e+05 [K]
-------------------------------------------------------------------------------
    external field VDW/kʙ        0.000000e+00 [K]
    external field Real/kʙ       0.000000e+00 [K]
    framework-molecule VDW/kʙ    0.000000e+00 [K]
    framework-molecule Real/kʙ   0.000000e+00 [K]
    molecule-molecule VDW/kʙ    -2.440254e+05 [K]
    molecule-molecule Real/kʙ   -8.109791e+04 [K]
    Van der Waals (Tail)/kʙ     -6.935405e+03 [K]
    Ewald Fourier/kʙ             1.158147e+04 [K]
    Ewald self/kʙ               -5.009555e+06 [K]
    Ewald exclusion/kʙ           4.986955e+06 [K]
    intra VDW/kʙ                 0.000000e+00 [K]
    intra Coulombic/kʙ           0.000000e+00 [K]
    polarization/kʙ              0.000000e+00 [K]
    dU/dlambda VDW/kʙ            0.000000e+00 [K]
    dU/dlambda Real/kʙ           0.000000e+00 [K]
    dU/dlambda Ewald/kʙ          0.000000e+00 [K]


Initialization: Current cycle: 800 out of 2000
===============================================================================

Box:      27.38153   0.00000   0.00000
           0.00000  27.38153   0.00000
           0.00000   0.00000  27.38153
Lengths:  27.38153  27.38153  27.38153
Angles:   90.00000  90.00000  90.00000
Rectangular boundary conditions

net charge:   0.00000000

component   0 (CO2) lambda:  0 occupancy:  0 (0.000000)
    net charge:   0.00000000 [e]

Amount of molecules per component :
-------------------------------------------------------------------------------
Component 0 (CO2)
    molecules:         2.480000e+02 molecules
    number density:    1.208032e-02 molec/A^3
    density:           8.826090e+02 kg/m^3

Total potential energy/kʙ       -3.494740e+05 [K]
-------------------------------------------------------------------------------
    external field VDW/kʙ        0.000000e+00 [K]
    external field Real/kʙ       0.000000e+00 [K]
    framework-molecule VDW/kʙ    0.000000e+00 [K]
    framework-molecule Real/kʙ   0.000000e+00 [K]
    molecule-molecule VDW/kʙ    -2.453191e+05 [K]
    molecule-molecule Real/kʙ   -8.461721e+04 [K]
    Van der Waals (Tail)/kʙ     -7.222832e+03 [K]
    Ewald Fourier/kʙ             1.019499e+04 [K]
    Ewald self/kʙ               -4.989437e+06 [K]
    Ewald exclusion/kʙ           4.966927e+06 [K]
    intra VDW/kʙ                 0.000000e+00 [K]
    intra Coulombic/kʙ           0.000000e+00 [K]
    polarization/kʙ              0.000000e+00 [K]
    dU/dlambda VDW/kʙ            0.000000e+00 [K]
    dU/dlambda Real/kʙ           0.000000e+00 [K]
    dU/dlambda Ewald/kʙ          0.000000e+00 [K]


Initialization: Current cycle: 900 out of 2000
===============================================================================

Box:      26.78086   0.00000   0.00000
           0.00000  26.78086   0.00000
           0.00000   0.00000  26.78086
Lengths:  26.78086  26.78086  26.78086
Angles:   90.00000  90.00000  90.00000
Rectangular boundary conditions

net charge:   0.00000000

component   0 (CO2) lambda:  0 occupancy:  0 (0.000000)
    net charge:   0.00000000 [e]

Amount of molecules per component :
-------------------------------------------------------------------------------
Component 0 (CO2)
    molecules:         2.470000e+02 molecules
    number density:    1.285949e-02 molec/A^3
    density:           9.395360e+02 kg/m^3

Total potential energy/kʙ       -3.578830e+05 [K]
-------------------------------------------------------------------------------
    external field VDW/kʙ        0.000000e+00 [K]
    external field Real/kʙ       0.000000e+00 [K]
    framework-molecule VDW/kʙ    0.000000e+00 [K]
    framework-molecule Real/kʙ   0.000000e+00 [K]
    molecule-molecule VDW/kʙ    -2.523438e+05 [K]
    molecule-molecule Real/kʙ   -8.525001e+04 [K]
    Van der Waals (Tail)/kʙ     -7.657691e+03 [K]
    Ewald Fourier/kʙ             9.787623e+03 [K]
    Ewald self/kʙ               -4.969318e+06 [K]
    Ewald exclusion/kʙ           4.946899e+06 [K]
    intra VDW/kʙ                 0.000000e+00 [K]
    intra Coulombic/kʙ           0.000000e+00 [K]
    polarization/kʙ              0.000000e+00 [K]
    dU/dlambda VDW/kʙ            0.000000e+00 [K]
    dU/dlambda Real/kʙ           0.000000e+00 [K]
    dU/dlambda Ewald/kʙ          0.000000e+00 [K]


Initialization: Current cycle: 1000 out of 2000
===============================================================================

Box:      26.26046   0.00000   0.00000
           0.00000  26.26046   0.00000
           0.00000   0.00000  26.26046
Lengths:  26.26046  26.26046  26.26046
Angles:   90.00000  90.00000  90.00000
Rectangular boundary conditions

net charge:   0.00000000

component   0 (CO2) lambda:  0 occupancy:  0 (0.000000)
    net charge:   0.00000000 [e]

Amount of molecules per component :
-------------------------------------------------------------------------------
Component 0 (CO2)
    molecules:         2.480000e+02 molecules
    number density:    1.369446e-02 molec/A^3
    density:           1.000540e+03 kg/m^3

Total potential energy/kʙ       -3.625923e+05 [K]
-------------------------------------------------------------------------------
    external field VDW/kʙ        0.000000e+00 [K]
    external field Real/kʙ       0.000000e+00 [K]
    framework-molecule VDW/kʙ    0.000000e+00 [K]
    framework-molecule Real/kʙ   0.000000e+00 [K]
    molecule-molecule VDW/kʙ    -2.492425e+05 [K]
    molecule-molecule Real/kʙ   -9.231322e+04 [K]
    Van der Waals (Tail)/kʙ     -8.187924e+03 [K]
    Ewald Fourier/kʙ             9.661221e+03 [K]
    Ewald self/kʙ               -4.989437e+06 [K]
    Ewald exclusion/kʙ           4.966927e+06 [K]
    intra VDW/kʙ                 0.000000e+00 [K]
    intra Coulombic/kʙ           0.000000e+00 [K]
    polarization/kʙ              0.000000e+00 [K]
    dU/dlambda VDW/kʙ            0.000000e+00 [K]
    dU/dlambda Real/kʙ           0.000000e+00 [K]
    dU/dlambda Ewald/kʙ          0.000000e+00 [K]


Initialization: Current cycle: 1100 out of 2000
===============================================================================

Box:      26.42209   0.00000   0.00000
           0.00000  26.42209   0.00000
           0.00000   0.00000  26.42209
Lengths:  26.42209  26.42209  26.42209
Angles:   90.00000  90.00000  90.00000
Rectangular boundary conditions

net charge:   0.00000000

component   0 (CO2) lambda:  0 occupancy:  0 (0.000000)
    net charge:   0.00000000 [e]

Amount of molecules per component :
-------------------------------------------------------------------------------
Component 0 (CO2)
    molecules:         2.490000e+02 molecules
    number density:    1.349888e-02 molec/A^3
    density:           9.862515e+02 kg/m^3

Total potential energy/kʙ       -3.659479e+05 [K]
-------------------------------------------------------------------------------
    external field VDW/kʙ        0.000000e+00 [K]
    external field Real/kʙ       0.000000e+00 [K]
    framework-molecule VDW/kʙ    0.000000e+00 [K]
    framework-molecule Real/kʙ   0.000000e+00 [K]
    molecule-molecule VDW/kʙ    -2.612202e+05 [K]
    molecule-molecule Real/kʙ   -8.423897e+04 [K]
    Van der Waals (Tail)/kʙ     -8.103534e+03 [K]
    Ewald Fourier/kʙ             1.021544e+04 [K]
    Ewald self/kʙ               -5.009555e+06 [K]
    Ewald exclusion/kʙ           4.986955e+06 [K]
    intra VDW/kʙ                 0.000000e+00 [K]
    intra Coulombic/kʙ           0.000000e+00 [K]
    polarization/kʙ              0.000000e+00 [K]
    dU/dlambda VDW/kʙ            0.000000e+00 [K]
    dU/dlambda Real/kʙ           0.000000e+00 [K]
    dU/dlambda Ewald/kʙ          0.000000e+00 [K]


Initialization: Current cycle: 1200 out of 2000
===============================================================================

Box:      25.98979   0.00000   0.00000
           0.00000  25.98979   0.00000
           0.00000   0.00000  25.98979
Lengths:  25.98979  25.98979  25.98979
Angles:   90.00000  90.00000  90.00000
Rectangular boundary conditions

net charge:   0.00000000

component   0 (CO2) lambda:  0 occupancy:  0 (0.000000)
    net charge:   0.00000000 [e]

Amount of molecules per component :
-------------------------------------------------------------------------------
Component 0 (CO2)
    molecules:         2.490000e+02 molecules
    number density:    1.418374e-02 molec/A^3
    density:           1.036289e+03 kg/m^3

Total potential energy/kʙ       -3.810886e+05 [K]
-------------------------------------------------------------------------------
    external field VDW/kʙ        0.000000e+00 [K]
    external field Real/kʙ       0.000000e+00 [K]
    framework-molecule VDW/kʙ    0.000000e+00 [K]
    framework-molecule Real/kʙ   0.000000e+00 [K]
    molecule-molecule VDW/kʙ    -2.717380e+05 [K]
    molecule-molecule Real/kʙ   -8.800725e+04 [K]
    Van der Waals (Tail)/kʙ     -8.514665e+03 [K]
    Ewald Fourier/kʙ             9.771930e+03 [K]
    Ewald self/kʙ               -5.009555e+06 [K]
    Ewald exclusion/kʙ           4.986955e+06 [K]
    intra VDW/kʙ                 0.000000e+00 [K]
    intra Coulombic/kʙ           0.000000e+00 [K]
    polarization/kʙ              0.000000e+00 [K]
    dU/dlambda VDW/kʙ            0.000000e+00 [K]
    dU/dlambda Real/kʙ           0.000000e+00 [K]
    dU/dlambda Ewald/kʙ          0.000000e+00 [K]


Initialization: Current cycle: 1300 out of 2000
===============================================================================

Box:      25.53981   0.00000   0.00000
           0.00000  25.53981   0.00000
           0.00000   0.00000  25.53981
Lengths:  25.53981  25.53981  25.53981
Angles:   90.00000  90.00000  90.00000
Rectangular boundary conditions

net charge:   0.00000000

component   0 (CO2) lambda:  0 occupancy:  0 (0.000000)
    net charge:   0.00000000 [e]

Amount of molecules per component :
-------------------------------------------------------------------------------
Component 0 (CO2)
    molecules:         2.480000e+02 molecules
    number density:    1.488671e-02 molec/A^3
    density:           1.087649e+03 kg/m^3

Total potential energy/kʙ       -4.000549e+05 [K]
-------------------------------------------------------------------------------
    external field VDW/kʙ        0.000000e+00 [K]
    external field Real/kʙ       0.000000e+00 [K]
    framework-molecule VDW/kʙ    0.000000e+00 [K]
    framework-molecule Real/kʙ   0.000000e+00 [K]
    molecule-molecule VDW/kʙ    -2.817504e+05 [K]
    molecule-molecule Real/kʙ   -9.636395e+04 [K]
    Van der Waals (Tail)/kʙ     -8.900774e+03 [K]
    Ewald Fourier/kʙ             9.470019e+03 [K]
    Ewald self/kʙ               -4.989437e+06 [K]
    Ewald exclusion/kʙ           4.966927e+06 [K]
    intra VDW/kʙ                 0.000000e+00 [K]
    intra Coulombic/kʙ           0.000000e+00 [K]
    polarization/kʙ              0.000000e+00 [K]
    dU/dlambda VDW/kʙ            0.000000e+00 [K]
    dU/dlambda Real/kʙ           0.000000e+00 [K]
    dU/dlambda Ewald/kʙ          0.000000e+00 [K]


Initialization: Current cycle: 1400 out of 2000
===============================================================================

Box:      25.29584   0.00000   0.00000
           0.00000  25.29584   0.00000
           0.00000   0.00000  25.29584
Lengths:  25.29584  25.29584  25.29584
Angles:   90.00000  90.00000  90.00000
Rectangular boundary conditions

net charge:   0.00000000

component   0 (CO2) lambda:  0 occupancy:  0 (0.000000)
    net charge:   0.00000000 [e]

Amount of molecules per component :
-------------------------------------------------------------------------------
Component 0 (CO2)
    molecules:         2.440000e+02 molecules
    number density:    1.507449e-02 molec/A^3
    density:           1.101368e+03 kg/m^3

Total potential energy/kʙ       -4.056864e+05 [K]
-------------------------------------------------------------------------------
    external field VDW/kʙ        0.000000e+00 [K]
    external field Real/kʙ       0.000000e+00 [K]
    framework-molecule VDW/kʙ    0.000000e+00 [K]
    framework-molecule Real/kʙ   0.000000e+00 [K]
    molecule-molecule VDW/kʙ    -2.793927e+05 [K]
    molecule-molecule Real/kʙ   -1.035073e+05 [K]
    Van der Waals (Tail)/kʙ     -8.867674e+03 [K]
    Ewald Fourier/kʙ             8.227984e+03 [K]
    Ewald self/kʙ               -4.908962e+06 [K]
    Ewald exclusion/kʙ           4.886815e+06 [K]
    intra VDW/kʙ                 0.000000e+00 [K]
    intra Coulombic/kʙ           0.000000e+00 [K]
    polarization/kʙ              0.000000e+00 [K]
    dU/dlambda VDW/kʙ            0.000000e+00 [K]
    dU/dlambda Real/kʙ           0.000000e+00 [K]
    dU/dlambda Ewald/kʙ          0.000000e+00 [K]


Initialization: Current cycle: 1500 out of 2000
===============================================================================

Box:      25.51564   0.00000   0.00000
           0.00000  25.51564   0.00000
           0.00000   0.00000  25.51564
Lengths:  25.51564  25.51564  25.51564
Angles:   90.00000  90.00000  90.00000
Rectangular boundary conditions

net charge:   0.00000000

component   0 (CO2) lambda:  0 occupancy:  0 (0.000000)
    net charge:   0.00000000 [e]

Amount of molecules per component :
-------------------------------------------------------------------------------
Component 0 (CO2)
    molecules:         2.490000e+02 molecules
    number density:    1.498925e-02 molec/A^3
    density:           1.095140e+03 kg/m^3

Total potential energy/kʙ       -4.087519e+05 [K]
-------------------------------------------------------------------------------
    external field VDW/kʙ        0.000000e+00 [K]
    external field Real/kʙ       0.000000e+00 [K]
    framework-molecule VDW/kʙ    0.000000e+00 [K]
    framework-molecule Real/kʙ   0.000000e+00 [K]
    molecule-molecule VDW/kʙ    -2.890158e+05 [K]
    molecule-molecule Real/kʙ   -9.721724e+04 [K]
    Van der Waals (Tail)/kʙ     -8.998217e+03 [K]
    Ewald Fourier/kʙ             9.080037e+03 [K]
    Ewald self/kʙ               -5.009555e+06 [K]
    Ewald exclusion/kʙ           4.986955e+06 [K]
    intra VDW/kʙ                 0.000000e+00 [K]
    intra Coulombic/kʙ           0.000000e+00 [K]
    polarization/kʙ              0.000000e+00 [K]
    dU/dlambda VDW/kʙ            0.000000e+00 [K]
    dU/dlambda Real/kʙ           0.000000e+00 [K]
    dU/dlambda Ewald/kʙ          0.000000e+00 [K]


Initialization: Current cycle: 1600 out of 2000
===============================================================================

Box:      25.23954   0.00000   0.00000
           0.00000  25.23954   0.00000
           0.00000   0.00000  25.23954
Lengths:  25.23954  25.23954  25.23954
Angles:   90.00000  90.00000  90.00000
Rectangular boundary conditions

net charge:   0.00000000

component   0 (CO2) lambda:  0 occupancy:  0 (0.000000)
    net charge:   0.00000000 [e]

Amount of molecules per component :
-------------------------------------------------------------------------------
Component 0 (CO2)
    molecules:         2.460000e+02 molecules
    number density:    1.529998e-02 molec/A^3
    density:           1.117842e+03 kg/m^3

Total potential energy/kʙ       -4.042759e+05 [K]
-------------------------------------------------------------------------------
    external field VDW/kʙ        0.000000e+00 [K]
    external field Real/kʙ       0.000000e+00 [K]
    framework-molecule VDW/kʙ    0.000000e+00 [K]
    framework-molecule Real/kʙ   0.000000e+00 [K]
    molecule-molecule VDW/kʙ    -2.851062e+05 [K]
    molecule-molecule Real/kʙ   -9.646593e+04 [K]
    Van der Waals (Tail)/kʙ     -9.074092e+03 [K]
    Ewald Fourier/kʙ             8.698613e+03 [K]
    Ewald self/kʙ               -4.949199e+06 [K]
    Ewald exclusion/kʙ           4.926871e+06 [K]
    intra VDW/kʙ                 0.000000e+00 [K]
    intra Coulombic/kʙ           0.000000e+00 [K]
    polarization/kʙ              0.000000e+00 [K]
    dU/dlambda VDW/kʙ            0.000000e+00 [K]
    dU/dlambda Real/kʙ           0.000000e+00 [K]
    dU/dlambda Ewald/kʙ          0.000000e+00 [K]


Initialization: Current cycle: 1700 out of 2000
===============================================================================

Box:      25.24120   0.00000   0.00000
           0.00000  25.24120   0.00000
           0.00000   0.00000  25.24120
Lengths:  25.24120  25.24120  25.24120
Angles:   90.00000  90.00000  90.00000
Rectangular boundary conditions

net charge:   0.00000000

component   0 (CO2) lambda:  0 occupancy:  0 (0.000000)
    net charge:   0.00000000 [e]

Amount of molecules per component :
-------------------------------------------------------------------------------
Component 0 (CO2)
    molecules:         2.460000e+02 molecules
    number density:    1.529697e-02 molec/A^3
    density:           1.117622e+03 kg/m^3

Total potential energy/kʙ       -4.116253e+05 [K]
-------------------------------------------------------------------------------
    external field VDW/kʙ        0.000000e+00 [K]
    external field Real/kʙ       0.000000e+00 [K]
    framework-molecule VDW/kʙ    0.000000e+00 [K]
    framework-molecule Real/kʙ   0.000000e+00 [K]
    molecule-molecule VDW/kʙ    -2.916167e+05 [K]
    molecule-molecule Real/kʙ   -9.751340e+04 [K]
    Van der Waals (Tail)/kʙ     -9.072306e+03 [K]
    Ewald Fourier/kʙ             8.905391e+03 [K]
    Ewald self/kʙ               -4.949199e+06 [K]
    Ewald exclusion/kʙ           4.926871e+06 [K]
    intra VDW/kʙ                 0.000000e+00 [K]
    intra Coulombic/kʙ           0.000000e+00 [K]
    polarization/kʙ              0.000000e+00 [K]
    dU/dlambda VDW/kʙ            0.000000e+00 [K]
    dU/dlambda Real/kʙ           0.000000e+00 [K]
    dU/dlambda Ewald/kʙ          0.000000e+00 [K]


Initialization: Current cycle: 1800 out of 2000
===============================================================================

Box:      25.17292   0.00000   0.00000
           0.00000  25.17292   0.00000
           0.00000   0.00000  25.17292
Lengths:  25.17292  25.17292  25.17292
Angles:   90.00000  90.00000  90.00000
Rectangular boundary conditions

net charge:   0.00000000

component   0 (CO2) lambda:  0 occupancy:  0 (0.000000)
    net charge:   0.00000000 [e]

Amount of molecules per component :
-------------------------------------------------------------------------------
Component 0 (CO2)
    molecules:         2.440000e+02 molecules
    number density:    1.529640e-02 molec/A^3
    density:           1.117581e+03 kg/m^3

Total potential energy/kʙ       -4.086740e+05 [K]
-------------------------------------------------------------------------------
    external field VDW/kʙ        0.000000e+00 [K]
    external field Real/kʙ       0.000000e+00 [K]
    framework-molecule VDW/kʙ    0.000000e+00 [K]
    framework-molecule Real/kʙ   0.000000e+00 [K]
    molecule-molecule VDW/kʙ    -2.928949e+05 [K]
    molecule-molecule Real/kʙ   -9.408107e+04 [K]
    Van der Waals (Tail)/kʙ     -8.998213e+03 [K]
    Ewald Fourier/kʙ             9.446951e+03 [K]
    Ewald self/kʙ               -4.908962e+06 [K]
    Ewald exclusion/kʙ           4.886815e+06 [K]
    intra VDW/kʙ                 0.000000e+00 [K]
    intra Coulombic/kʙ           0.000000e+00 [K]
    polarization/kʙ              0.000000e+00 [K]
    dU/dlambda VDW/kʙ            0.000000e+00 [K]
    dU/dlambda Real/kʙ           0.000000e+00 [K]
    dU/dlambda Ewald/kʙ          0.000000e+00 [K]


Initialization: Current cycle: 1900 out of 2000
===============================================================================

Box:      25.05794   0.00000   0.00000
           0.00000  25.05794   0.00000
           0.00000   0.00000  25.05794
Lengths:  25.05794  25.05794  25.05794
Angles:   90.00000  90.00000  90.00000
Rectangular boundary conditions

net charge:   0.00000000

component   0 (CO2) lambda:  0 occupancy:  0 (0.000000)
    net charge:   0.00000000 [e]

Amount of molecules per component :
-------------------------------------------------------------------------------
Component 0 (CO2)
    molecules:         2.440000e+02 molecules
    number density:    1.550793e-02 molec/A^3
    density:           1.133036e+03 kg/m^3

Total potential energy/kʙ       -4.143490e+05 [K]
-------------------------------------------------------------------------------
    external field VDW/kʙ        0.000000e+00 [K]
    external field Real/kʙ       0.000000e+00 [K]
    framework-molecule VDW/kʙ    0.000000e+00 [K]
    framework-molecule Real/kʙ   0.000000e+00 [K]
    molecule-molecule VDW/kʙ    -2.969589e+05 [K]
    molecule-molecule Real/kʙ   -9.532311e+04 [K]
    Van der Waals (Tail)/kʙ     -9.122650e+03 [K]
    Ewald Fourier/kʙ             9.202423e+03 [K]
    Ewald self/kʙ               -4.908962e+06 [K]
    Ewald exclusion/kʙ           4.886815e+06 [K]
    intra VDW/kʙ                 0.000000e+00 [K]
    intra Coulombic/kʙ           0.000000e+00 [K]
    polarization/kʙ              0.000000e+00 [K]
    dU/dlambda VDW/kʙ            0.000000e+00 [K]
    dU/dlambda Real/kʙ           0.000000e+00 [K]
    dU/dlambda Ewald/kʙ          0.000000e+00 [K]


Current cycle: 0 out of 6000
===============================================================================

Box:      24.97665   0.00000   0.00000  Average:  24.97665   0.00000   0.00000
           0.00000  24.97665   0.00000             0.00000  24.97665   0.00000
           0.00000   0.00000  24.97665             0.00000   0.00000  24.97665
Lengths:  24.97665  24.97665  24.97665  Average:  24.97665  24.97665  24.97665
Angles:   90.00000  90.00000  90.00000  Average:  90.00000  90.00000  90.00000
Rectangular boundary conditions

net charge:   0.00000000

component 0 (CO2) lambda:  0 occupancy:  0 (0.000000)
    net charge:   0.00000000 [e]

Amount of molecules per component :
-------------------------------------------------------------------------------
Component 0 (CO2)
    molecules:      2.460000e+02 molecules  (2.460000e+02 +/- 0.000000e+00)
    number density: 1.578819e-02 molec./A^3 (1.578819e-02 +/- 0.000000e+00)
    density:        1.153512e+03 kg/m^3     (1.153512e+03 +/- 0.000000e+00)

Average pressure tensor: 
-------------------------------------------------------------------------------
 4.7956e+02  0.0000e+00  0.0000e+00 +/- 0.0000e+00 0.0000e+00 0.0000e+00 [bar]
 0.0000e+00  4.7956e+02  0.0000e+00 +/- 0.0000e+00 0.0000e+00 0.0000e+00 [bar]
 0.0000e+00  0.0000e+00  4.7956e+02 +/- 0.0000e+00 0.0000e+00 0.0000e+00 [bar]
Ideal-gas pressure:   4.795553e+02 +/ 0.000000e+00 [bar]
Excess pressure:      0.000000e+00 +/ 0.000000e+00 [bar]
Pressure:             4.795553e+02 +/ 0.000000e+00 [bar]

Total potential energy/kʙ  -4.193506e+05 (-4.193506e+05 +/- 0.000000e+00) [K]
-------------------------------------------------------------------------------
ExternalField-molecule
    Van der Waals/kʙ        0.000000e+00 ( 0.000000e+00 +/- 0.000000e+00) [K]
Framework-molecule
    Van der Waals/kʙ        0.000000e+00 ( 0.000000e+00 +/- 0.000000e+00) [K]
    Van der Waals (Tail)/kʙ 0.000000e+00 ( 0.000000e+00 +/- 0.000000e+00) [K]
    Coulombic Real/kʙ       0.000000e+00 ( 0.000000e+00 +/- 0.000000e+00) [K]
    Coulombic Fourier/kʙ    0.000000e+00 ( 0.000000e+00 +/- 0.000000e+00) [K]
Molecule-molecule
    Van der Waals/kʙ       -2.986318e+05 (-2.986318e+05 +/- 0.000000e+00) [K]
    Van der Waals (Tail)/kʙ-9.363641e+03 (-9.363641e+03 +/- 0.000000e+00) [K]
    Coulombic Real/kʙ      -9.806889e+04 (-9.806889e+04 +/- 0.000000e+00) [K]
    Coulombic Fourier/kʙ   -1.328635e+04 (-1.328635e+04 +/- 0.000000e+00) [K]
    Molecule Intra/kʙ       0.000000e+00 ( 0.000000e+00 +/- 0.000000e+00) [K]

Current cycle: 100 out of 6000
===============================================================================

Box:      25.16979   0.00000   0.00000  Average:  25.04747   0.00000   0.00000
           0.00000  25.16979   0.00000             0.00000  25.04747   0.00000
           0.00000   0.00000  25.16979             0.00000   0.00000  25.04747
Lengths:  25.16979  25.16979  25.16979  Average:  25.04747  25.04747  25.04747
Angles:   90.00000  90.00000  90.00000  Average:  90.00000  90.00000  90.00000
Rectangular boundary conditions

net charge:   0.00000000

component 0 (CO2) lambda:  0 occupancy:  0 (0.000000)
    net charge:   0.00000000 [e]

Amount of molecules per component :
-------------------------------------------------------------------------------
Component 0 (CO2)
    molecules:      2.480000e+02 molecules  (2.447624e+02 +/- 0.000000e+00)
    number density: 1.555295e-02 molec./A^3 (1.557899e-02 +/- 0.000000e+00)
    density:        1.136325e+03 kg/m^3     (1.138228e+03 +/- 0.000000e+00)

Average pressure tensor: 
-------------------------------------------------------------------------------
-1.6027e+02 -8.3327e+01  2.2652e+01 +/- 0.0000e+00 0.0000e+00 0.0000e+00 [bar]
-8.3327e+01  1.5040e+02  1.3884e+02 +/- 0.0000e+00 0.0000e+00 0.0000e+00 [bar]
 2.2652e+01  1.3884e+02  1.3462e+02 +/- 0.0000e+00 0.0000e+00 0.0000e+00 [bar]
Ideal-gas pressure:   4.732010e+02 +/ 0.000000e+00 [bar]
Excess pressure:     -4.316173e+02 +/ 0.000000e+00 [bar]
Pressure:             4.158370e+01 +/ 0.000000e+00 [bar]

Total potential energy/kʙ  -4.172502e+05 (-4.127221e+05 +/- 0.000000e+00) [K]
-------------------------------------------------------------------------------
ExternalField-molecule
    Van der Waals/kʙ        0.000000e+00 ( 0.000000e+00 +/- 0.000000e+00) [K]
Framework-molecule
    Van der Waals/kʙ        0.000000e+00 ( 0.000000e+00 +/- 0.000000e+00) [K]
    Van der Waals (Tail)/kʙ 0.000000e+00 ( 0.000000e+00 +/- 0.000000e+00) [K]
    Coulombic Real/kʙ       0.000000e+00 ( 0.000000e+00 +/- 0.000000e+00) [K]
    Coulombic Fourier/kʙ    0.000000e+00 ( 0.000000e+00 +/- 0.000000e+00) [K]
Molecule-molecule
    Van der Waals/kʙ       -2.990002e+05 (-2.926486e+05 +/- 0.000000e+00) [K]
    Van der Waals (Tail)/kʙ-9.299120e+03 (-9.194688e+03 +/- 0.000000e+00) [K]
    Coulombic Real/kʙ      -9.587096e+04 (-9.744855e+04 +/- 0.000000e+00) [K]
    Coulombic Fourier/kʙ   -1.307991e+04 (-1.343024e+04 +/- 0.000000e+00) [K]
    Molecule Intra/kʙ       0.000000e+00 ( 0.000000e+00 +/- 0.000000e+00) [K]

Current cycle: 200 out of 6000
===============================================================================

Box:      25.32345   0.00000   0.00000  Average:  25.12568   0.00000   0.00000
           0.00000  25.32345   0.00000             0.00000  25.12568   0.00000
           0.00000   0.00000  25.32345             0.00000   0.00000  25.12568
Lengths:  25.32345  25.32345  25.32345  Average:  25.12568  25.12568  25.12568
Angles:   90.00000  90.00000  90.00000  Average:  90.00000  90.00000  90.00000
Rectangular boundary conditions

net charge:   0.00000000

component 0 (CO2) lambda:  0 occupancy:  0 (0.000000)
    net charge:   0.00000000 [e]

Amount of molecules per component :
-------------------------------------------------------------------------------
Component 0 (CO2)
    molecules:      2.420000e+02 molecules  (2.453831e+02 +/- 0.000000e+00)
    number density: 1.490207e-02 molec./A^3 (1.547249e-02 +/- 0.000000e+00)
    density:        1.088771e+03 kg/m^3     (1.130447e+03 +/- 0.000000e+00)

Average pressure tensor: 
-------------------------------------------------------------------------------
-3.4436e+02 -9.5299e+01  1.0190e+02 +/- 0.0000e+00 0.0000e+00 0.0000e+00 [bar]
-9.5299e+01  1.3367e+02  2.8545e+01 +/- 0.0000e+00 0.0000e+00 0.0000e+00 [bar]
 1.0190e+02  2.8545e+01  1.9335e+02 +/- 0.0000e+00 0.0000e+00 0.0000e+00 [bar]
Ideal-gas pressure:   4.699663e+02 +/ 0.000000e+00 [bar]
Excess pressure:     -4.757475e+02 +/ 0.000000e+00 [bar]
Pressure:            -5.781236e+00 +/ 0.000000e+00 [bar]

Total potential energy/kʙ  -3.959037e+05 (-4.100856e+05 +/- 0.000000e+00) [K]
-------------------------------------------------------------------------------
ExternalField-molecule
    Van der Waals/kʙ        0.000000e+00 ( 0.000000e+00 +/- 0.000000e+00) [K]
Framework-molecule
    Van der Waals/kʙ        0.000000e+00 ( 0.000000e+00 +/- 0.000000e+00) [K]
    Van der Waals (Tail)/kʙ 0.000000e+00 ( 0.000000e+00 +/- 0.000000e+00) [K]
    Coulombic Real/kʙ       0.000000e+00 ( 0.000000e+00 +/- 0.000000e+00) [K]
    Coulombic Fourier/kʙ    0.000000e+00 ( 0.000000e+00 +/- 0.000000e+00) [K]
Molecule-molecule
    Van der Waals/kʙ       -2.872391e+05 (-2.914185e+05 +/- 0.000000e+00) [K]
    Van der Waals (Tail)/kʙ-8.694393e+03 (-9.128613e+03 +/- 0.000000e+00) [K]
    Coulombic Real/kʙ      -8.699868e+04 (-9.624791e+04 +/- 0.000000e+00) [K]
    Coulombic Fourier/kʙ   -1.297152e+04 (-1.329052e+04 +/- 0.000000e+00) [K]
    Molecule Intra/kʙ       0.000000e+00 ( 0.000000e+00 +/- 0.000000e+00) [K]

Current cycle: 300 out of 6000
===============================================================================

Box:      25.00638   0.00000   0.00000  Average:  25.12684   0.00000   0.00000
           0.00000  25.00638   0.00000             0.00000  25.12684   0.00000
           0.00000   0.00000  25.00638             0.00000   0.00000  25.12684
Lengths:  25.00638  25.00638  25.00638  Average:  25.12684  25.12684  25.12684
Angles:   90.00000  90.00000  90.00000  Average:  90.00000  90.00000  90.00000
Rectangular boundary conditions

net charge:   0.00000000

component 0 (CO2) lambda:  0 occupancy:  0 (0.000000)
    net charge:   0.00000000 [e]

Amount of molecules per component :
-------------------------------------------------------------------------------
Component 0 (CO2)
    molecules:      2.410000e+02 molecules  (2.451163e+02 +/- 0.000000e+00)
    number density: 1.541220e-02 molec./A^3 (1.545280e-02 +/- 0.000000e+00)
    density:        1.126042e+03 kg/m^3     (1.129008e+03 +/- 0.000000e+00)

Average pressure tensor: 
-------------------------------------------------------------------------------
-2.8976e+02 -1.0004e+02  6.4700e+01 +/- 0.0000e+00 0.0000e+00 0.0000e+00 [bar]
-1.0004e+02 -2.9015e+01  7.9932e+01 +/- 0.0000e+00 0.0000e+00 0.0000e+00 [bar]
 6.4700e+01  7.9932e+01  1.0592e+02 +/- 0.0000e+00 0.0000e+00 0.0000e+00 [bar]
Ideal-gas pressure:   4.693682e+02 +/ 0.000000e+00 [bar]
Excess pressure:     -5.403198e+02 +/ 0.000000e+00 [bar]
Pressure:            -7.095164e+01 +/ 0.000000e+00 [bar]

Total potential energy/kʙ  -4.058860e+05 (-4.093755e+05 +/- 0.000000e+00) [K]
-------------------------------------------------------------------------------
ExternalField-molecule
    Van der Waals/kʙ        0.000000e+00 ( 0.000000e+00 +/- 0.000000e+00) [K]
Framework-molecule
    Van der Waals/kʙ        0.000000e+00 ( 0.000000e+00 +/- 0.000000e+00) [K]
    Van der Waals (Tail)/kʙ 0.000000e+00 ( 0.000000e+00 +/- 0.000000e+00) [K]
    Coulombic Real/kʙ       0.000000e+00 ( 0.000000e+00 +/- 0.000000e+00) [K]
    Coulombic Fourier/kʙ    0.000000e+00 ( 0.000000e+00 +/- 0.000000e+00) [K]
Molecule-molecule
    Van der Waals/kʙ       -2.883177e+05 (-2.915989e+05 +/- 0.000000e+00) [K]
    Van der Waals (Tail)/kʙ-8.954865e+03 (-9.104489e+03 +/- 0.000000e+00) [K]
    Coulombic Real/kʙ      -9.534036e+04 (-9.538765e+04 +/- 0.000000e+00) [K]
    Coulombic Fourier/kʙ   -1.327313e+04 (-1.328448e+04 +/- 0.000000e+00) [K]
    Molecule Intra/kʙ       0.000000e+00 ( 0.000000e+00 +/- 0.000000e+00) [K]

Current cycle: 400 out of 6000
===============================================================================

Box:      24.83187   0.00000   0.00000  Average:  25.08871   0.00000   0.00000
           0.00000  24.83187   0.00000             0.00000  25.08871   0.00000
           0.00000   0.00000  24.83187             0.00000   0.00000  25.08871
Lengths:  24.83187  24.83187  24.83187  Average:  25.08871  25.08871  25.08871
Angles:   90.00000  90.00000  90.00000  Average:  90.00000  90.00000  90.00000
Rectangular boundary conditions

net charge:   0.00000000

component 0 (CO2) lambda:  0 occupancy:  0 (0.000000)
    net charge:   0.00000000 [e]

Amount of molecules per component :
-------------------------------------------------------------------------------
Component 0 (CO2)
    molecules:      2.440000e+02 molecules  (2.447531e+02 +/- 0.000000e+00)
    number density: 1.593535e-02 molec./A^3 (1.550054e-02 +/- 0.000000e+00)
    density:        1.164264e+03 kg/m^3     (1.132496e+03 +/- 0.000000e+00)

Average pressure tensor: 
-------------------------------------------------------------------------------
-1.8499e+02 -7.6818e+01  2.3920e+01 +/- 0.0000e+00 0.0000e+00 0.0000e+00 [bar]
-7.6818e+01  1.9119e+01  3.4313e+01 +/- 0.0000e+00 0.0000e+00 0.0000e+00 [bar]
 2.3920e+01  3.4313e+01  8.9702e+01 +/- 0.0000e+00 0.0000e+00 0.0000e+00 [bar]
Ideal-gas pressure:   4.708180e+02 +/ 0.000000e+00 [bar]
Excess pressure:     -4.962091e+02 +/ 0.000000e+00 [bar]
Pressure:            -2.539110e+01 +/ 0.000000e+00 [bar]

Total potential energy/kʙ  -4.227868e+05 (-4.109333e+05 +/- 0.000000e+00) [K]
-------------------------------------------------------------------------------
ExternalField-molecule
    Van der Waals/kʙ        0.000000e+00 ( 0.000000e+00 +/- 0.000000e+00) [K]
Framework-molecule
    Van der Waals/kʙ        0.000000e+00 ( 0.000000e+00 +/- 0.000000e+00) [K]
    Van der Waals (Tail)/kʙ 0.000000e+00 ( 0.000000e+00 +/- 0.000000e+00) [K]
    Coulombic Real/kʙ       0.000000e+00 ( 0.000000e+00 +/- 0.000000e+00) [K]
    Coulombic Fourier/kʙ    0.000000e+00 ( 0.000000e+00 +/- 0.000000e+00) [K]
Molecule-molecule
    Van der Waals/kʙ       -3.001842e+05 (-2.927148e+05 +/- 0.000000e+00) [K]
    Van der Waals (Tail)/kʙ-9.374080e+03 (-9.149476e+03 +/- 0.000000e+00) [K]
    Coulombic Real/kʙ      -1.003677e+05 (-9.587102e+04 +/- 0.000000e+00) [K]
    Coulombic Fourier/kʙ   -1.286086e+04 (-1.319799e+04 +/- 0.000000e+00) [K]
    Molecule Intra/kʙ       0.000000e+00 ( 0.000000e+00 +/- 0.000000e+00) [K]

Current cycle: 500 out of 6000
===============================================================================

Box:      25.04188   0.00000   0.00000  Average:  25.05504   0.00000   0.00000
           0.00000  25.04188   0.00000             0.00000  25.05504   0.00000
           0.00000   0.00000  25.04188             0.00000   0.00000  25.05504
Lengths:  25.04188  25.04188  25.04188  Average:  25.05504  25.05504  25.05504
Angles:   90.00000  90.00000  90.00000  Average:  90.00000  90.00000  90.00000
Rectangular boundary conditions

net charge:   0.00000000

component 0 (CO2) lambda:  0 occupancy:  0 (0.000000)
    net charge:   0.00000000 [e]

Amount of molecules per component :
-------------------------------------------------------------------------------
Component 0 (CO2)
    molecules:      2.440000e+02 molecules  (2.446048e+02 +/- 0.000000e+00)
    number density: 1.553779e-02 molec./A^3 (1.555393e-02 +/- 0.000000e+00)
    density:        1.135218e+03 kg/m^3     (1.136397e+03 +/- 0.000000e+00)

Average pressure tensor: 
-------------------------------------------------------------------------------
-1.7263e+02 -4.2375e+01 -3.9437e+00 +/- 0.0000e+00 0.0000e+00 0.0000e+00 [bar]
-4.2375e+01  7.2598e+01  3.4402e+01 +/- 0.0000e+00 0.0000e+00 0.0000e+00 [bar]
-3.9437e+00  3.4402e+01  1.0312e+01 +/- 0.0000e+00 0.0000e+00 0.0000e+00 [bar]
Ideal-gas pressure:   4.724398e+02 +/ 0.000000e+00 [bar]
Excess pressure:     -5.023457e+02 +/ 0.000000e+00 [bar]
Pressure:            -2.990595e+01 +/ 0.000000e+00 [bar]

Total potential energy/kʙ  -4.124436e+05 (-4.121543e+05 +/- 0.000000e+00) [K]
-------------------------------------------------------------------------------
ExternalField-molecule
    Van der Waals/kʙ        0.000000e+00 ( 0.000000e+00 +/- 0.000000e+00) [K]
Framework-molecule
    Van der Waals/kʙ        0.000000e+00 ( 0.000000e+00 +/- 0.000000e+00) [K]
    Van der Waals (Tail)/kʙ 0.000000e+00 ( 0.000000e+00 +/- 0.000000e+00) [K]
    Coulombic Real/kʙ       0.000000e+00 ( 0.000000e+00 +/- 0.000000e+00) [K]
    Coulombic Fourier/kʙ    0.000000e+00 ( 0.000000e+00 +/- 0.000000e+00) [K]
Molecule-molecule
    Van der Waals/kʙ       -2.935482e+05 (-2.937246e+05 +/- 0.000000e+00) [K]
    Van der Waals (Tail)/kʙ-9.140214e+03 (-9.170120e+03 +/- 0.000000e+00) [K]
    Coulombic Real/kʙ      -9.563212e+04 (-9.592884e+04 +/- 0.000000e+00) [K]
    Coulombic Fourier/kʙ   -1.412306e+04 (-1.333070e+04 +/- 0.000000e+00) [K]
    Molecule Intra/kʙ       0.000000e+00 ( 0.000000e+00 +/- 0.000000e+00) [K]

Current cycle: 600 out of 6000
===============================================================================

Box:      25.13088   0.00000   0.00000  Average:  25.05690   0.00000   0.00000
           0.00000  25.13088   0.00000             0.00000  25.05690   0.00000
           0.00000   0.00000  25.13088             0.00000   0.00000  25.05690
Lengths:  25.13088  25.13088  25.13088  Average:  25.05690  25.05690  25.05690
Angles:   90.00000  90.00000  90.00000  Average:  90.00000  90.00000  90.00000
Rectangular boundary conditions

net charge:   0.00000000

component 0 (CO2) lambda:  0 occupancy:  0 (0.000000)
    net charge:   0.00000000 [e]

Amount of molecules per component :
-------------------------------------------------------------------------------
Component 0 (CO2)
    molecules:      2.450000e+02 molecules  (2.448186e+02 +/- 0.000000e+00)
    number density: 1.543628e-02 molec./A^3 (1.556385e-02 +/- 0.000000e+00)
    density:        1.127801e+03 kg/m^3     (1.137121e+03 +/- 0.000000e+00)

Average pressure tensor: 
-------------------------------------------------------------------------------
-1.8048e+02 -3.7100e+01 -6.8203e+00 +/- 0.0000e+00 0.0000e+00 0.0000e+00 [bar]
-3.7100e+01  8.0650e+01 -3.8524e+00 +/- 0.0000e+00 0.0000e+00 0.0000e+00 [bar]
-6.8203e+00 -3.8524e+00  6.4914e+00 +/- 0.0000e+00 0.0000e+00 0.0000e+00 [bar]
Ideal-gas pressure:   4.727411e+02 +/ 0.000000e+00 [bar]
Excess pressure:     -5.038536e+02 +/ 0.000000e+00 [bar]
Pressure:            -3.111249e+01 +/ 0.000000e+00 [bar]

Total potential energy/kʙ  -4.114886e+05 (-4.132628e+05 +/- 0.000000e+00) [K]
-------------------------------------------------------------------------------
ExternalField-molecule
    Van der Waals/kʙ        0.000000e+00 ( 0.000000e+00 +/- 0.000000e+00) [K]
Framework-molecule
    Van der Waals/kʙ        0.000000e+00 ( 0.000000e+00 +/- 0.000000e+00) [K]
    Van der Waals (Tail)/kʙ 0.000000e+00 ( 0.000000e+00 +/- 0.000000e+00) [K]
    Coulombic Real/kʙ       0.000000e+00 ( 0.000000e+00 +/- 0.000000e+00) [K]
    Coulombic Fourier/kʙ    0.000000e+00 ( 0.000000e+00 +/- 0.000000e+00) [K]
Molecule-molecule
    Van der Waals/kʙ       -2.942118e+05 (-2.943062e+05 +/- 0.000000e+00) [K]
    Van der Waals (Tail)/kʙ-9.117718e+03 (-9.187587e+03 +/- 0.000000e+00) [K]
    Coulombic Real/kʙ      -9.395574e+04 (-9.627061e+04 +/- 0.000000e+00) [K]
    Coulombic Fourier/kʙ   -1.420332e+04 (-1.349840e+04 +/- 0.000000e+00) [K]
    Molecule Intra/kʙ       0.000000e+00 ( 0.000000e+00 +/- 0.000000e+00) [K]

Current cycle: 700 out of 6000
===============================================================================

Box:      24.99185   0.00000   0.00000  Average:  25.04457   0.00000   0.00000
           0.00000  24.99185   0.00000             0.00000  25.04457   0.00000
           0.00000   0.00000  24.99185             0.00000   0.00000  25.04457
Lengths:  24.99185  24.99185  24.99185  Average:  25.04457  25.04457  25.04457
Angles:   90.00000  90.00000  90.00000  Average:  90.00000  90.00000  90.00000
Rectangular boundary conditions

net charge:   0.00000000

component 0 (CO2) lambda:  0 occupancy:  0 (0.000000)
    net charge:   0.00000000 [e]

Amount of molecules per component :
-------------------------------------------------------------------------------
Component 0 (CO2)
    molecules:      2.480000e+02 molecules  (2.448174e+02 +/- 0.000000e+00)
    number density: 1.588754e-02 molec./A^3 (1.558677e-02 +/- 0.000000e+00)
    density:        1.160771e+03 kg/m^3     (1.138796e+03 +/- 0.000000e+00)

Average pressure tensor: 
-------------------------------------------------------------------------------
-1.7376e+02 -5.0144e+01 -2.0284e+01 +/- 0.0000e+00 0.0000e+00 0.0000e+00 [bar]
-5.0144e+01  8.1053e+01  6.2240e+01 +/- 0.0000e+00 0.0000e+00 0.0000e+00 [bar]
-2.0284e+01  6.2240e+01  4.2456e+01 +/- 0.0000e+00 0.0000e+00 0.0000e+00 [bar]
Ideal-gas pressure:   4.734374e+02 +/ 0.000000e+00 [bar]
Excess pressure:     -4.901877e+02 +/ 0.000000e+00 [bar]
Pressure:            -1.675024e+01 +/ 0.000000e+00 [bar]

Total potential energy/kʙ  -4.274376e+05 (-4.136866e+05 +/- 0.000000e+00) [K]
-------------------------------------------------------------------------------
ExternalField-molecule
    Van der Waals/kʙ        0.000000e+00 ( 0.000000e+00 +/- 0.000000e+00) [K]
Framework-molecule
    Van der Waals/kʙ        0.000000e+00 ( 0.000000e+00 +/- 0.000000e+00) [K]
    Van der Waals (Tail)/kʙ 0.000000e+00 ( 0.000000e+00 +/- 0.000000e+00) [K]
    Coulombic Real/kʙ       0.000000e+00 ( 0.000000e+00 +/- 0.000000e+00) [K]
    Coulombic Fourier/kʙ    0.000000e+00 ( 0.000000e+00 +/- 0.000000e+00) [K]
Molecule-molecule
    Van der Waals/kʙ       -3.056327e+05 (-2.948791e+05 +/- 0.000000e+00) [K]
    Van der Waals (Tail)/kʙ-9.499169e+03 (-9.202868e+03 +/- 0.000000e+00) [K]
    Coulombic Real/kʙ      -9.745987e+04 (-9.602403e+04 +/- 0.000000e+00) [K]
    Coulombic Fourier/kʙ   -1.484592e+04 (-1.358053e+04 +/- 0.000000e+00) [K]
    Molecule Intra/kʙ       0.000000e+00 ( 0.000000e+00 +/- 0.000000e+00) [K]

Current cycle: 800 out of 6000
===============================================================================

Box:      25.08442   0.00000   0.00000  Average:  25.03956   0.00000   0.00000
           0.00000  25.08442   0.00000             0.00000  25.03956   0.00000
           0.00000   0.00000  25.08442             0.00000   0.00000  25.03956
Lengths:  25.08442  25.08442  25.08442  Average:  25.03956  25.03956  25.03956
Angles:   90.00000  90.00000  90.00000  Average:  90.00000  90.00000  90.00000
Rectangular boundary conditions

net charge:   0.00000000

component 0 (CO2) lambda:  0 occupancy:  0 (0.000000)
    net charge:   0.00000000 [e]

Amount of molecules per component :
-------------------------------------------------------------------------------
Component 0 (CO2)
    molecules:      2.480000e+02 molecules  (2.447129e+02 +/- 0.000000e+00)
    number density: 1.571228e-02 molec./A^3 (1.558939e-02 +/- 0.000000e+00)
    density:        1.147966e+03 kg/m^3     (1.138987e+03 +/- 0.000000e+00)

Average pressure tensor: 
-------------------------------------------------------------------------------
-1.6352e+02 -3.7455e+01 -2.3203e+01 +/- 0.0000e+00 0.0000e+00 0.0000e+00 [bar]
-3.7455e+01  3.5908e+01  1.1189e+02 +/- 0.0000e+00 0.0000e+00 0.0000e+00 [bar]
-2.3203e+01  1.1189e+02  6.0060e+01 +/- 0.0000e+00 0.0000e+00 0.0000e+00 [bar]
Ideal-gas pressure:   4.735168e+02 +/ 0.000000e+00 [bar]
Excess pressure:     -4.960357e+02 +/ 0.000000e+00 [bar]
Pressure:            -2.251881e+01 +/ 0.000000e+00 [bar]

Total potential energy/kʙ  -4.214947e+05 (-4.136639e+05 +/- 0.000000e+00) [K]
-------------------------------------------------------------------------------
ExternalField-molecule
    Van der Waals/kʙ        0.000000e+00 ( 0.000000e+00 +/- 0.000000e+00) [K]
Framework-molecule
    Van der Waals/kʙ        0.000000e+00 ( 0.000000e+00 +/- 0.000000e+00) [K]
    Van der Waals (Tail)/kʙ 0.000000e+00 ( 0.000000e+00 +/- 0.000000e+00) [K]
    Coulombic Real/kʙ       0.000000e+00 ( 0.000000e+00 +/- 0.000000e+00) [K]
    Coulombic Fourier/kʙ    0.000000e+00 ( 0.000000e+00 +/- 0.000000e+00) [K]
Molecule-molecule
    Van der Waals/kʙ       -2.968134e+05 (-2.945130e+05 +/- 0.000000e+00) [K]
    Van der Waals (Tail)/kʙ-9.394383e+03 (-9.194532e+03 +/- 0.000000e+00) [K]
    Coulombic Real/kʙ      -1.016330e+05 (-9.631112e+04 +/- 0.000000e+00) [K]
    Coulombic Fourier/kʙ   -1.365387e+04 (-1.364526e+04 +/- 0.000000e+00) [K]
    Molecule Intra/kʙ       0.000000e+00 ( 0.000000e+00 +/- 0.000000e+00) [K]

Current cycle: 900 out of 6000
===============================================================================

Box:      24.98187   0.00000   0.00000  Average:  25.04193   0.00000   0.00000
           0.00000  24.98187   0.00000             0.00000  25.04193   0.00000
           0.00000   0.00000  24.98187             0.00000   0.00000  25.04193
Lengths:  24.98187  24.98187  24.98187  Average:  25.04193  25.04193  25.04193
Angles:   90.00000  90.00000  90.00000  Average:  90.00000  90.00000  90.00000
Rectangular boundary conditions

net charge:   0.00000000

component 0 (CO2) lambda:  0 occupancy:  0 (0.000000)
    net charge:   0.00000000 [e]

Amount of molecules per component :
-------------------------------------------------------------------------------
Component 0 (CO2)
    molecules:      2.430000e+02 molecules  (2.446981e+02 +/- 0.000000e+00)
    number density: 1.558589e-02 molec./A^3 (1.558385e-02 +/- 0.000000e+00)
    density:        1.138731e+03 kg/m^3     (1.138583e+03 +/- 0.000000e+00)

Average pressure tensor: 
-------------------------------------------------------------------------------
-1.6130e+02 -3.4630e+01 -1.0397e+01 +/- 0.0000e+00 0.0000e+00 0.0000e+00 [bar]
-3.4630e+01  4.0303e+01  1.2544e+02 +/- 0.0000e+00 0.0000e+00 0.0000e+00 [bar]
-1.0397e+01  1.2544e+02  4.1405e+01 +/- 0.0000e+00 0.0000e+00 0.0000e+00 [bar]
Ideal-gas pressure:   4.733487e+02 +/ 0.000000e+00 [bar]
Excess pressure:     -4.998810e+02 +/ 0.000000e+00 [bar]
Pressure:            -2.653229e+01 +/ 0.000000e+00 [bar]

Total potential energy/kʙ  -4.108927e+05 (-4.137761e+05 +/- 0.000000e+00) [K]
-------------------------------------------------------------------------------
ExternalField-molecule
    Van der Waals/kʙ        0.000000e+00 ( 0.000000e+00 +/- 0.000000e+00) [K]
Framework-molecule
    Van der Waals/kʙ        0.000000e+00 ( 0.000000e+00 +/- 0.000000e+00) [K]
    Van der Waals (Tail)/kʙ 0.000000e+00 ( 0.000000e+00 +/- 0.000000e+00) [K]
    Coulombic Real/kʙ       0.000000e+00 ( 0.000000e+00 +/- 0.000000e+00) [K]
    Coulombic Fourier/kʙ    0.000000e+00 ( 0.000000e+00 +/- 0.000000e+00) [K]
Molecule-molecule
    Van der Waals/kʙ       -2.874858e+05 (-2.941303e+05 +/- 0.000000e+00) [K]
    Van der Waals (Tail)/kʙ-9.130931e+03 (-9.185533e+03 +/- 0.000000e+00) [K]
    Coulombic Real/kʙ      -9.995286e+04 (-9.679706e+04 +/- 0.000000e+00) [K]
    Coulombic Fourier/kʙ   -1.432310e+04 (-1.366322e+04 +/- 0.000000e+00) [K]
    Molecule Intra/kʙ       0.000000e+00 ( 0.000000e+00 +/- 0.000000e+00) [K]

Current cycle: 1000 out of 6000
===============================================================================

Box:      25.10155   0.00000   0.00000  Average:  25.05312   0.00000   0.00000
           0.00000  25.10155   0.00000             0.00000  25.05312   0.00000
           0.00000   0.00000  25.10155             0.00000   0.00000  25.05312
Lengths:  25.10155  25.10155  25.10155  Average:  25.05312  25.05312  25.05312
Angles:   90.00000  90.00000  90.00000  Average:  90.00000  90.00000  90.00000
Rectangular boundary conditions

net charge:   0.00000000

component 0 (CO2) lambda:  0 occupancy:  0 (0.000000)
    net charge:   0.00000000 [e]

Amount of molecules per component :
-------------------------------------------------------------------------------
Component 0 (CO2)
    molecules:      2.470000e+02 molecules  (2.448122e+02 +/- 0.000000e+00)
    number density: 1.561691e-02 molec./A^3 (1.557021e-02 +/- 0.000000e+00)
    density:        1.140999e+03 kg/m^3     (1.137586e+03 +/- 0.000000e+00)

Average pressure tensor: 
-------------------------------------------------------------------------------
-1.4202e+02 -4.4341e+01  1.6202e+01 +/- 0.0000e+00 0.0000e+00 0.0000e+00 [bar]
-4.4341e+01  4.6986e+01  1.1076e+02 +/- 0.0000e+00 0.0000e+00 0.0000e+00 [bar]
 1.6202e+01  1.1076e+02 -4.7982e-01 +/- 0.0000e+00 0.0000e+00 0.0000e+00 [bar]
Ideal-gas pressure:   4.729344e+02 +/ 0.000000e+00 [bar]
Excess pressure:     -5.047734e+02 +/ 0.000000e+00 [bar]
Pressure:            -3.183898e+01 +/ 0.000000e+00 [bar]

Total potential energy/kʙ  -4.202978e+05 (-4.142355e+05 +/- 0.000000e+00) [K]
-------------------------------------------------------------------------------
ExternalField-molecule
    Van der Waals/kʙ        0.000000e+00 ( 0.000000e+00 +/- 0.000000e+00) [K]
Framework-molecule
    Van der Waals/kʙ        0.000000e+00 ( 0.000000e+00 +/- 0.000000e+00) [K]
    Van der Waals (Tail)/kʙ 0.000000e+00 ( 0.000000e+00 +/- 0.000000e+00) [K]
    Coulombic Real/kʙ       0.000000e+00 ( 0.000000e+00 +/- 0.000000e+00) [K]
    Coulombic Fourier/kʙ    0.000000e+00 ( 0.000000e+00 +/- 0.000000e+00) [K]
Molecule-molecule
    Van der Waals/kʙ       -2.915292e+05 (-2.940276e+05 +/- 0.000000e+00) [K]
    Van der Waals (Tail)/kʙ-9.299712e+03 (-9.183736e+03 +/- 0.000000e+00) [K]
    Coulombic Real/kʙ      -1.055987e+05 (-9.729625e+04 +/- 0.000000e+00) [K]
    Coulombic Fourier/kʙ   -1.387023e+04 (-1.372786e+04 +/- 0.000000e+00) [K]
    Molecule Intra/kʙ       0.000000e+00 ( 0.000000e+00 +/- 0.000000e+00) [K]

Current cycle: 1100 out of 6000
===============================================================================

Box:      25.00033   0.00000   0.00000  Average:  25.05581   0.00000   0.00000
           0.00000  25.00033   0.00000             0.00000  25.05581   0.00000
           0.00000   0.00000  25.00033             0.00000   0.00000  25.05581
Lengths:  25.00033  25.00033  25.00033  Average:  25.05581  25.05581  25.05581
Angles:   90.00000  90.00000  90.00000  Average:  90.00000  90.00000  90.00000
Rectangular boundary conditions

net charge:   0.00000000

component 0 (CO2) lambda:  0 occupancy:  0 (0.000000)
    net charge:   0.00000000 [e]

Amount of molecules per component :
-------------------------------------------------------------------------------
Component 0 (CO2)
    molecules:      2.460000e+02 molecules  (2.448892e+02 +/- 0.000000e+00)
    number density: 1.574338e-02 molec./A^3 (1.556999e-02 +/- 0.000000e+00)
    density:        1.150238e+03 kg/m^3     (1.137570e+03 +/- 0.000000e+00)

Average pressure tensor: 
-------------------------------------------------------------------------------
-1.2341e+02 -3.8831e+01  1.6259e+01 +/- 0.0000e+00 0.0000e+00 0.0000e+00 [bar]
-3.8831e+01  4.7092e+01  7.4244e+01 +/- 0.0000e+00 0.0000e+00 0.0000e+00 [bar]
 1.6259e+01  7.4244e+01 -2.1829e+01 +/- 0.0000e+00 0.0000e+00 0.0000e+00 [bar]
Ideal-gas pressure:   4.729276e+02 +/ 0.000000e+00 [bar]
Excess pressure:     -5.056424e+02 +/ 0.000000e+00 [bar]
Pressure:            -3.271480e+01 +/ 0.000000e+00 [bar]

Total potential energy/kʙ  -4.271702e+05 (-4.149494e+05 +/- 0.000000e+00) [K]
-------------------------------------------------------------------------------
ExternalField-molecule
    Van der Waals/kʙ        0.000000e+00 ( 0.000000e+00 +/- 0.000000e+00) [K]
Framework-molecule
    Van der Waals/kʙ        0.000000e+00 ( 0.000000e+00 +/- 0.000000e+00) [K]
    Van der Waals (Tail)/kʙ 0.000000e+00 ( 0.000000e+00 +/- 0.000000e+00) [K]
    Coulombic Real/kʙ       0.000000e+00 ( 0.000000e+00 +/- 0.000000e+00) [K]
    Coulombic Fourier/kʙ    0.000000e+00 ( 0.000000e+00 +/- 0.000000e+00) [K]
Molecule-molecule
    Van der Waals/kʙ       -2.966088e+05 (-2.940989e+05 +/- 0.000000e+00) [K]
    Van der Waals (Tail)/kʙ-9.337063e+03 (-9.188570e+03 +/- 0.000000e+00) [K]
    Coulombic Real/kʙ      -1.067816e+05 (-9.788299e+04 +/- 0.000000e+00) [K]
    Coulombic Fourier/kʙ   -1.444269e+04 (-1.377899e+04 +/- 0.000000e+00) [K]
    Molecule Intra/kʙ       0.000000e+00 ( 0.000000e+00 +/- 0.000000e+00) [K]

Current cycle: 1200 out of 6000
===============================================================================

Box:      25.21864   0.00000   0.00000  Average:  25.06153   0.00000   0.00000
           0.00000  25.21864   0.00000             0.00000  25.06153   0.00000
           0.00000   0.00000  25.21864             0.00000   0.00000  25.06153
Lengths:  25.21864  25.21864  25.21864  Average:  25.06153  25.06153  25.06153
Angles:   90.00000  90.00000  90.00000  Average:  90.00000  90.00000  90.00000
Rectangular boundary conditions

net charge:   0.00000000

component 0 (CO2) lambda:  0 occupancy:  0 (0.000000)
    net charge:   0.00000000 [e]

Amount of molecules per component :
-------------------------------------------------------------------------------
Component 0 (CO2)
    molecules:      2.450000e+02 molecules  (2.449276e+02 +/- 0.000000e+00)
    number density: 1.527571e-02 molec./A^3 (1.556174e-02 +/- 0.000000e+00)
    density:        1.116069e+03 kg/m^3     (1.136967e+03 +/- 0.000000e+00)

Average pressure tensor: 
-------------------------------------------------------------------------------
-1.0760e+02 -2.5610e+01  8.5804e+00 +/- 0.0000e+00 0.0000e+00 0.0000e+00 [bar]
-2.5610e+01  4.4950e+01  4.0989e+01 +/- 0.0000e+00 0.0000e+00 0.0000e+00 [bar]
 8.5804e+00  4.0989e+01 -3.3953e+01 +/- 0.0000e+00 0.0000e+00 0.0000e+00 [bar]
Ideal-gas pressure:   4.726770e+02 +/ 0.000000e+00 [bar]
Excess pressure:     -5.048772e+02 +/ 0.000000e+00 [bar]
Pressure:            -3.220017e+01 +/ 0.000000e+00 [bar]

Total potential energy/kʙ  -4.052125e+05 (-4.149245e+05 +/- 0.000000e+00) [K]
-------------------------------------------------------------------------------
ExternalField-molecule
    Van der Waals/kʙ        0.000000e+00 ( 0.000000e+00 +/- 0.000000e+00) [K]
Framework-molecule
    Van der Waals/kʙ        0.000000e+00 ( 0.000000e+00 +/- 0.000000e+00) [K]
    Van der Waals (Tail)/kʙ 0.000000e+00 ( 0.000000e+00 +/- 0.000000e+00) [K]
    Coulombic Real/kʙ       0.000000e+00 ( 0.000000e+00 +/- 0.000000e+00) [K]
    Coulombic Fourier/kʙ    0.000000e+00 ( 0.000000e+00 +/- 0.000000e+00) [K]
Molecule-molecule
    Van der Waals/kʙ       -2.849987e+05 (-2.939181e+05 +/- 0.000000e+00) [K]
    Van der Waals (Tail)/kʙ-9.022870e+03 (-9.185540e+03 +/- 0.000000e+00) [K]
    Coulombic Real/kʙ      -9.737516e+04 (-9.801504e+04 +/- 0.000000e+00) [K]
    Coulombic Fourier/kʙ   -1.381576e+04 (-1.380580e+04 +/- 0.000000e+00) [K]
    Molecule Intra/kʙ       0.000000e+00 ( 0.000000e+00 +/- 0.000000e+00) [K]

Current cycle: 1300 out of 6000
===============================================================================

Box:      24.99324   0.00000   0.00000  Average:  25.07136   0.00000   0.00000
           0.00000  24.99324   0.00000             0.00000  25.07136   0.00000
           0.00000   0.00000  24.99324             0.00000   0.00000  25.07136
Lengths:  24.99324  24.99324  24.99324  Average:  25.07136  25.07136  25.07136
Angles:   90.00000  90.00000  90.00000  Average:  90.00000  90.00000  90.00000
Rectangular boundary conditions

net charge:   0.00000000

component 0 (CO2) lambda:  0 occupancy:  0 (0.000000)
    net charge:   0.00000000 [e]

Amount of molecules per component :
-------------------------------------------------------------------------------
Component 0 (CO2)
    molecules:      2.480000e+02 molecules  (2.450538e+02 +/- 0.000000e+00)
    number density: 1.588489e-02 molec./A^3 (1.555150e-02 +/- 0.000000e+00)
    density:        1.160577e+03 kg/m^3     (1.136219e+03 +/- 0.000000e+00)

Average pressure tensor: 
-------------------------------------------------------------------------------
-9.3774e+01 -2.4345e+01  1.4371e+01 +/- 0.0000e+00 0.0000e+00 0.0000e+00 [bar]
-2.4345e+01  6.6658e+01  1.7808e+01 +/- 0.0000e+00 0.0000e+00 0.0000e+00 [bar]
 1.4371e+01  1.7808e+01 -2.0030e+01 +/- 0.0000e+00 0.0000e+00 0.0000e+00 [bar]
Ideal-gas pressure:   4.723660e+02 +/ 0.000000e+00 [bar]
Excess pressure:     -4.880811e+02 +/ 0.000000e+00 [bar]
Pressure:            -1.571519e+01 +/ 0.000000e+00 [bar]

Total potential energy/kʙ  -4.277326e+05 (-4.151296e+05 +/- 0.000000e+00) [K]
-------------------------------------------------------------------------------
ExternalField-molecule
    Van der Waals/kʙ        0.000000e+00 ( 0.000000e+00 +/- 0.000000e+00) [K]
Framework-molecule
    Van der Waals/kʙ        0.000000e+00 ( 0.000000e+00 +/- 0.000000e+00) [K]
    Van der Waals (Tail)/kʙ 0.000000e+00 ( 0.000000e+00 +/- 0.000000e+00) [K]
    Coulombic Real/kʙ       0.000000e+00 ( 0.000000e+00 +/- 0.000000e+00) [K]
    Coulombic Fourier/kʙ    0.000000e+00 ( 0.000000e+00 +/- 0.000000e+00) [K]
Molecule-molecule
    Van der Waals/kʙ       -2.967878e+05 (-2.936635e+05 +/- 0.000000e+00) [K]
    Van der Waals (Tail)/kʙ-9.497582e+03 (-9.188715e+03 +/- 0.000000e+00) [K]
    Coulombic Real/kʙ      -1.081277e+05 (-9.848916e+04 +/- 0.000000e+00) [K]
    Coulombic Fourier/kʙ   -1.331955e+04 (-1.378824e+04 +/- 0.000000e+00) [K]
    Molecule Intra/kʙ       0.000000e+00 ( 0.000000e+00 +/- 0.000000e+00) [K]

Current cycle: 1400 out of 6000
===============================================================================

Box:      25.21101   0.00000   0.00000  Average:  25.07652   0.00000   0.00000
           0.00000  25.21101   0.00000             0.00000  25.07652   0.00000
           0.00000   0.00000  25.21101             0.00000   0.00000  25.07652
Lengths:  25.21101  25.21101  25.21101  Average:  25.07652  25.07652  25.07652
Angles:   90.00000  90.00000  90.00000  Average:  90.00000  90.00000  90.00000
Rectangular boundary conditions

net charge:   0.00000000

component 0 (CO2) lambda:  0 occupancy:  0 (0.000000)
    net charge:   0.00000000 [e]

Amount of molecules per component :
-------------------------------------------------------------------------------
Component 0 (CO2)
    molecules:      2.480000e+02 molecules  (2.451420e+02 +/- 0.000000e+00)
    number density: 1.547679e-02 molec./A^3 (1.554744e-02 +/- 0.000000e+00)
    density:        1.130760e+03 kg/m^3     (1.135922e+03 +/- 0.000000e+00)

Average pressure tensor: 
-------------------------------------------------------------------------------
-9.2643e+01 -1.5925e+01  1.2872e+01 +/- 0.0000e+00 0.0000e+00 0.0000e+00 [bar]
-1.5925e+01  8.2473e+01  1.0602e+01 +/- 0.0000e+00 0.0000e+00 0.0000e+00 [bar]
 1.2872e+01  1.0602e+01 -7.3241e+00 +/- 0.0000e+00 0.0000e+00 0.0000e+00 [bar]
Ideal-gas pressure:   4.722426e+02 +/ 0.000000e+00 [bar]
Excess pressure:     -4.780740e+02 +/ 0.000000e+00 [bar]
Pressure:            -5.831312e+00 +/ 0.000000e+00 [bar]

Total potential energy/kʙ  -4.207267e+05 (-4.155077e+05 +/- 0.000000e+00) [K]
-------------------------------------------------------------------------------
ExternalField-molecule
    Van der Waals/kʙ        0.000000e+00 ( 0.000000e+00 +/- 0.000000e+00) [K]
Framework-molecule
    Van der Waals/kʙ        0.000000e+00 ( 0.000000e+00 +/- 0.000000e+00) [K]
    Van der Waals (Tail)/kʙ 0.000000e+00 ( 0.000000e+00 +/- 0.000000e+00) [K]
    Coulombic Real/kʙ       0.000000e+00 ( 0.000000e+00 +/- 0.000000e+00) [K]
    Coulombic Fourier/kʙ    0.000000e+00 ( 0.000000e+00 +/- 0.000000e+00) [K]
Molecule-molecule
    Van der Waals/kʙ       -2.920750e+05 (-2.937685e+05 +/- 0.000000e+00) [K]
    Van der Waals (Tail)/kʙ-9.253579e+03 (-9.190810e+03 +/- 0.000000e+00) [K]
    Coulombic Real/kʙ      -1.052644e+05 (-9.878897e+04 +/- 0.000000e+00) [K]
    Coulombic Fourier/kʙ   -1.413370e+04 (-1.375945e+04 +/- 0.000000e+00) [K]
    Molecule Intra/kʙ       0.000000e+00 ( 0.000000e+00 +/- 0.000000e+00) [K]

Current cycle: 1500 out of 6000
===============================================================================

Box:      25.01095   0.00000   0.00000  Average:  25.07654   0.00000   0.00000
           0.00000  25.01095   0.00000             0.00000  25.07654   0.00000
           0.00000   0.00000  25.01095             0.00000   0.00000  25.07654
[...]
    number density: 1.546206e-02 molec./A^3 (1.572271e-02 +/- 1.556455e-04)
    density:        1.129684e+03 kg/m^3     (1.148728e+03 +/- 1.137172e+01)

Average pressure tensor: 
-------------------------------------------------------------------------------
-9.4474e+01  1.4764e+01  3.0070e+01 +/- 1.3425e+02 6.8155e+01 6.7514e+01 [bar]
 1.4764e+01  3.9591e+01  6.6523e+01 +/- 6.8155e+01 1.0757e+02 7.3998e+01 [bar]
 3.0070e+01  6.6523e+01  1.0112e+01 +/- 6.7514e+01 7.3998e+01 1.0008e+02 [bar]
Ideal-gas pressure:   4.775665e+02 +/ 4.727623e+00 [bar]
Excess pressure:     -4.924902e+02 +/ 3.907589e+01 [bar]
Pressure:            -1.492362e+01 +/ 3.742392e+01 [bar]

Total potential energy/kʙ  -4.093817e+05 (-4.145292e+05 +/- 5.229299e+03) [K]
-------------------------------------------------------------------------------
ExternalField-molecule
    Van der Waals/kʙ        0.000000e+00 ( 0.000000e+00 +/- 0.000000e+00) [K]
Framework-molecule
    Van der Waals/kʙ        0.000000e+00 ( 0.000000e+00 +/- 0.000000e+00) [K]
    Van der Waals (Tail)/kʙ 0.000000e+00 ( 0.000000e+00 +/- 0.000000e+00) [K]
    Coulombic Real/kʙ       0.000000e+00 ( 0.000000e+00 +/- 0.000000e+00) [K]
    Coulombic Fourier/kʙ    0.000000e+00 ( 0.000000e+00 +/- 0.000000e+00) [K]
Molecule-molecule
    Van der Waals/kʙ       -2.878153e+05 (-2.935893e+05 +/- 3.100415e+03) [K]
    Van der Waals (Tail)/kʙ-8.872001e+03 (-9.186109e+03 +/- 7.294305e+01) [K]
    Coulombic Real/kʙ      -9.868839e+04 (-9.808043e+04 +/- 2.083947e+03) [K]
    Coulombic Fourier/kʙ   -1.400606e+04 (-1.367337e+04 +/- 1.574283e+02) [K]
    Molecule Intra/kʙ       0.000000e+00 ( 0.000000e+00 +/- 0.000000e+00) [K]

Current cycle: 5800 out of 6000
===============================================================================

Box:      24.57124   0.00000   0.00000  Average:  24.88876   0.00000   0.00000
           0.00000  24.57124   0.00000             0.00000  24.88876   0.00000
           0.00000   0.00000  24.57124             0.00000   0.00000  24.88876
Lengths:  24.57124  24.57124  24.57124  Average:  24.88876  24.88876  24.88876
Angles:   90.00000  90.00000  90.00000  Average:  90.00000  90.00000  90.00000
Rectangular boundary conditions

net charge:   0.00000000

component 0 (CO2) lambda:  0 occupancy:  0 (0.000000)
    net charge:   0.00000000 [e]

Amount of molecules per component :
-------------------------------------------------------------------------------
Component 0 (CO2)
    molecules:      2.390000e+02 molecules  (2.424208e+02 +/- 2.112551e+00)
    number density: 1.611079e-02 molec./A^3 (1.572572e-02 +/- 1.566670e-04)
    density:        1.177082e+03 kg/m^3     (1.148948e+03 +/- 1.144636e+01)

Average pressure tensor: 
-------------------------------------------------------------------------------
-9.4248e+01  1.2527e+01  3.2209e+01 +/- 1.3426e+02 6.9446e+01 5.8637e+01 [bar]
 1.2527e+01  3.7872e+01  6.8147e+01 +/- 6.9446e+01 1.0422e+02 7.5082e+01 [bar]
 3.2209e+01  6.8147e+01  1.3120e+00 +/- 5.8637e+01 7.5082e+01 8.2813e+01 [bar]
Ideal-gas pressure:   4.776578e+02 +/ 4.758650e+00 [bar]
Excess pressure:     -4.960125e+02 +/ 4.399491e+01 [bar]
Pressure:            -1.835472e+01 +/ 4.184577e+01 [bar]

Total potential energy/kʙ  -4.277694e+05 (-4.146726e+05 +/- 5.333140e+03) [K]
-------------------------------------------------------------------------------
ExternalField-molecule
    Van der Waals/kʙ        0.000000e+00 ( 0.000000e+00 +/- 0.000000e+00) [K]
Framework-molecule
    Van der Waals/kʙ        0.000000e+00 ( 0.000000e+00 +/- 0.000000e+00) [K]
    Van der Waals (Tail)/kʙ 0.000000e+00 ( 0.000000e+00 +/- 0.000000e+00) [K]
    Coulombic Real/kʙ       0.000000e+00 ( 0.000000e+00 +/- 0.000000e+00) [K]
    Coulombic Fourier/kʙ    0.000000e+00 ( 0.000000e+00 +/- 0.000000e+00) [K]
Molecule-molecule
    Van der Waals/kʙ       -2.969598e+05 (-2.936411e+05 +/- 3.073323e+03) [K]
    Van der Waals (Tail)/kʙ-9.283081e+03 (-9.186400e+03 +/- 7.007592e+01) [K]
    Coulombic Real/kʙ      -1.075072e+05 (-9.816896e+04 +/- 2.192484e+03) [K]
    Coulombic Fourier/kʙ   -1.401928e+04 (-1.367621e+04 +/- 1.582815e+02) [K]
    Molecule Intra/kʙ       0.000000e+00 ( 0.000000e+00 +/- 0.000000e+00) [K]

Current cycle: 5900 out of 6000
===============================================================================

Box:      24.71097   0.00000   0.00000  Average:  24.88496   0.00000   0.00000
           0.00000  24.71097   0.00000             0.00000  24.88496   0.00000
           0.00000   0.00000  24.71097             0.00000   0.00000  24.88496
Lengths:  24.71097  24.71097  24.71097  Average:  24.88496  24.88496  24.88496
Angles:   90.00000  90.00000  90.00000  Average:  90.00000  90.00000  90.00000
Rectangular boundary conditions

net charge:   0.00000000

component 0 (CO2) lambda:  0 occupancy:  0 (0.000000)
    net charge:   0.00000000 [e]

Amount of molecules per component :
-------------------------------------------------------------------------------
Component 0 (CO2)
    molecules:      2.410000e+02 molecules  (2.424367e+02 +/- 2.115048e+00)
    number density: 1.597158e-02 molec./A^3 (1.573409e-02 +/- 1.678588e-04)
    density:        1.166911e+03 kg/m^3     (1.149560e+03 +/- 1.226405e+01)

Average pressure tensor: 
-------------------------------------------------------------------------------
-9.8578e+01  1.1830e+01  3.5208e+01 +/- 1.3462e+02 6.9635e+01 5.0511e+01 [bar]
 1.1830e+01  3.9086e+01  6.3671e+01 +/- 6.9635e+01 9.3383e+01 7.0915e+01 [bar]
 3.5208e+01  6.3671e+01  1.5063e-01 +/- 5.0511e+01 7.0915e+01 8.0939e+01 [bar]
Ideal-gas pressure:   4.779122e+02 +/ 5.098594e+00 [bar]
Excess pressure:     -4.976926e+02 +/ 4.582429e+01 [bar]
Pressure:            -1.978036e+01 +/ 4.325184e+01 [bar]

Total potential energy/kʙ  -4.282164e+05 (-4.150509e+05 +/- 5.949629e+03) [K]
-------------------------------------------------------------------------------
ExternalField-molecule
    Van der Waals/kʙ        0.000000e+00 ( 0.000000e+00 +/- 0.000000e+00) [K]
Framework-molecule
    Van der Waals/kʙ        0.000000e+00 ( 0.000000e+00 +/- 0.000000e+00) [K]
    Van der Waals (Tail)/kʙ 0.000000e+00 ( 0.000000e+00 +/- 0.000000e+00) [K]
    Coulombic Real/kʙ       0.000000e+00 ( 0.000000e+00 +/- 0.000000e+00) [K]
    Coulombic Fourier/kʙ    0.000000e+00 ( 0.000000e+00 +/- 0.000000e+00) [K]
Molecule-molecule
    Van der Waals/kʙ       -3.031573e+05 (-2.938543e+05 +/- 3.428559e+03) [K]
    Van der Waals (Tail)/kʙ-9.279878e+03 (-9.191284e+03 +/- 7.814784e+01) [K]
    Coulombic Real/kʙ      -1.022006e+05 (-9.832027e+04 +/- 2.422380e+03) [K]
    Coulombic Fourier/kʙ   -1.357867e+04 (-1.368505e+04 +/- 1.633428e+02) [K]
    Molecule Intra/kʙ       0.000000e+00 ( 0.000000e+00 +/- 0.000000e+00) [K]


Energy statistics             |  Energy [K]   | Recomputed [K]|  Drift [K]    |
===============================================================================
Total potential energy/kʙ     | -4.341752e+05 | -4.341752e+05 | -4.867728e-10 |
    external field VDW/kʙ     |  0.000000e+00 |  0.000000e+00 |  0.000000e+00 |
    external field Real/kʙ    |  0.000000e+00 |  0.000000e+00 |  0.000000e+00 |
    framework-molecule VDW/kʙ |  0.000000e+00 |  0.000000e+00 |  0.000000e+00 |
    framework-molecule Real/kʙ|  0.000000e+00 |  0.000000e+00 |  0.000000e+00 |
    molecule-molecule VDW/kʙ  | -3.097755e+05 | -3.097755e+05 | -9.801087e-10 |
    molecule-molecule Real/kʙ | -1.004014e+05 | -1.004014e+05 |  5.250583e-10 |
    Van der Waals (Tail)/kʙ   | -9.624722e+03 | -9.624722e+03 | -1.968968e-11 |
    Ewald Fourier/kʙ          |  7.954822e+03 |  7.954822e+03 | -1.203259e-11 |
    Ewald self/kʙ             | -4.949199e+06 | -4.949199e+06 |  0.000000e+00 |
    Ewald exclusion/kʙ        |  4.926871e+06 |  4.926871e+06 |  0.000000e+00 |
    intra VDW/kʙ              |  0.000000e+00 |  0.000000e+00 |  0.000000e+00 |
    intra Coulombic/kʙ        |  0.000000e+00 |  0.000000e+00 |  0.000000e+00 |
    polarization/kʙ           |  0.000000e+00 |  0.000000e+00 |  0.000000e+00 |
    dU/dlambda VDW/kʙ         |  0.000000e+00 |  0.000000e+00 |  0.000000e+00 |
    dU/dlambda Real/kʙ        |  0.000000e+00 |  0.000000e+00 |  0.000000e+00 |
    dU/dlambda Ewald/kʙ       |  0.000000e+00 |  0.000000e+00 |  0.000000e+00 |
-------------------------------------------------------------------------------


Monte-Carlo moves statistics
===============================================================================

    Gibbs volume         all:                2899
    Gibbs volume         total:              5872
    Gibbs volume         constructed:        5872
    Gibbs volume         accepted:           2985
    Gibbs volume         fraction:       0.508345
    Gibbs volume         max-change:     0.033929

Component 0 [CO2]
    Reinsertion (CBMC)   all:              149983
    Reinsertion (CBMC)   total:            149983
    Reinsertion (CBMC)   constructed:      113522
    Reinsertion (CBMC)   accepted:            430
    Reinsertion (CBMC)   fraction:       0.002867
    Reinsertion (CBMC)   max-change:     0.000000

    Gibbs swap (CBMC)    all:              298426
    Gibbs swap (CBMC)    total:            597357
    Gibbs swap (CBMC)    constructed:      521962
    Gibbs swap (CBMC)    accepted:           9970
    Gibbs swap (CBMC)    fraction:       0.016690
    Gibbs swap (CBMC)    max-change:     0.000000

    Translation          all:              149053
    Translation          total:             50037      49383      49633
    Translation          constructed:       50037      49383      49633
    Translation          accepted:          21921      21605      21240
    Translation          fraction:       0.438096   0.437499   0.427941
    Translation          max-change:     0.604816   0.603687   0.608629

    Rotation             all:              149909
    Rotation             total:             50214      49884      49811
    Rotation             constructed:       50214      49884      49811
    Rotation             accepted:          23275      29816      23394
    Rotation             fraction:       0.463516   0.597707   0.469655
    Rotation             max-change:     0.613690   0.508445   0.619860



Production run counting of the MC moves summed over systems and components
===============================================================================

Reinsertion (CBMC)                   299348 (19.9565 [%])
Gibbs volume                           5872 (0.3915 [%])
Gibbs swap (CBMC)                    597679 (39.8453 [%])
Translation                          297700 (19.8467 [%])
Rotation                             299401 (19.9601 [%])

Production count MC-steps:          1500000 [-]
               All summed:          1500000 [-]
               difference:                0 [-]


Production run CPU timings of the MC moves
===============================================================================

Component 0 CO2

Rotation                             22.907073 [s]
    Ewald                             7.485959 [s]
    ExternalField-Molecule            0.007570 [s]
    Framework-Molecule                0.008072 [s]
    Molecule-Molecule                14.827584 [s]
    Overhead                          0.577888 [s]

Reinsertion (CBMC)                   95.733395 [s]
    Ewald                             5.758733 [s]
    NonEwald                         89.862711 [s]
    Overhead                          0.111951 [s]

Translation                          22.785836 [s]
    Ewald                             7.448342 [s]
    ExternalField-Molecule            0.007808 [s]
    Framework-Molecule                0.012110 [s]
    Molecule-Molecule                14.794049 [s]
    Overhead                          0.523527 [s]



Gibbs swap (CBMC)                   127.771924 [s]
    Ewald                            15.485168 [s]
    NonEwald                        110.989510 [s]
    Tail                              0.930697 [s]

Gibbs volume                         27.159484 [s]
    Ewald                             7.374454 [s]
    NonEwald                         18.693288 [s]
    Tail                              0.948327 [s]

Property sampling                     0.340001 [s]
Energy/pressure sampling:            11.808262 [s]


Production run CPU timings of the MC moves summed over systems and components
===============================================================================


Translation                          28.982788 [s]
    Ewald                            12.720771 [s]
    ExternalField-Molecule            0.015659 [s]
    Framework-Molecule                0.024116 [s]
    Molecule-Molecule                15.089189 [s]
    Overhead                          1.133053 [s]

Rotation                             29.150856 [s]
    Ewald                            12.797196 [s]
    ExternalField-Molecule            0.015459 [s]
    Framework-Molecule                0.016056 [s]
    Molecule-Molecule                15.129746 [s]
    Overhead                          1.192399 [s]

Reinsertion (CBMC)                  106.492232 [s]
    Ewald                            11.084648 [s]
    NonEwald                         94.768851 [s]
    Overhead                          0.638733 [s]

Gibbs volume                         54.979556 [s]
    Ewald                            14.919856 [s]
    NonEwald                         37.860295 [s]
    Tail                              1.910566 [s]
    Overhead                          0.288839 [s]

Gibbs swap (CBMC)                   315.783616 [s]
    Ewald                            36.145714 [s]
    NonEwald                        276.272757 [s]
    Tail                              2.551652 [s]
    Overhead                          0.813493 [s]

Property sampling:                    0.640958 [s]
Energy/pressure sampling:            11.972620 [s]

Production simulation time:         549.068800 [s]
                All summed:         548.002626 [s]
                  Overhead:           1.066174 [s]


Initalization simulation time:      172.618727 [s]
Equilibration simulation time:        0.000000 [s]
Production simulation time:         549.068800 [s]
Total simulation time:              721.687527 [s]


Energy averages and statistics:
===============================================================================

Framework-molecule energy:
-------------------------------------------------------------------------------



Framework-molecule energy contributions per energy type:
-------------------------------------------------------------------------------



Inter-molecular energy:
-------------------------------------------------------------------------------

    Inter-molecular energy/kʙ 0-0 [CO2-CO2]:
    ---------------------------------------------------------------------------
        Block[  0] -4.150054e+05
        Block[  1] -4.093526e+05
        Block[  2] -4.121506e+05
        Block[  3] -4.174862e+05
        Block[  4] -4.223647e+05
        -----------------------------------------------------------------------
        Average  -4.152719e+05 +/-  6.209270e+03 [K]



Inter-molecular energy contributions per energy type:
-------------------------------------------------------------------------------

    Van der Waals energy/kʙ 0-0 [CO2-CO2]:
    ---------------------------------------------------------------------------
        Block[  0] -2.939924e+05
        Block[  1] -2.904729e+05
        Block[  2] -2.924691e+05
        Block[  3] -2.947428e+05
        Block[  4] -2.983653e+05
        -----------------------------------------------------------------------
        Average  -2.940085e+05 +/-  3.640247e+03 [K]

    VDW Tail-Correction energy/kʙ 0-0 [CO2-CO2]:
    ---------------------------------------------------------------------------
        Block[  0] -9.186895e+03
        Block[  1] -9.121123e+03
        Block[  2] -9.150386e+03
        Block[  3] -9.222731e+03
        Block[  4] -9.291061e+03
        -----------------------------------------------------------------------
        Average  -9.194439e+03 +/-  8.213653e+01 [K]

    Coulomb Real energy/kʙ 0-0 [CO2-CO2]:
    ---------------------------------------------------------------------------
        Block[  0] -9.802037e+04
        Block[  1] -9.628949e+04
        Block[  2] -9.678998e+04
        Block[  3] -9.985774e+04
        Block[  4] -1.009205e+05
        -----------------------------------------------------------------------
        Average  -9.837561e+04 +/-  2.456822e+03 [K]

    Coulomb Fourier energy/kʙ 0-0 [CO2-CO2]:
    ---------------------------------------------------------------------------
        Block[  0] -1.380571e+04
        Block[  1] -1.346908e+04
        Block[  2] -1.374109e+04
        Block[  3] -1.366290e+04
        Block[  4] -1.378783e+04
        -----------------------------------------------------------------------
        Average  -1.369332e+04 +/-  1.700605e+02 [K]


Total energy/kʙ
-------------------------------------------------------------------------------
    Block[  0] -4.150054e+05
    Block[  1] -4.093526e+05
    Block[  2] -4.121506e+05
    Block[  3] -4.174862e+05
    Block[  4] -4.223647e+05
    ---------------------------------------------------------------------------
    Average  -4.152719e+05 +/-  6.209270e+03 [K]

Pressure averages and statistics:
===============================================================================

Average pressure tensor: 
-------------------------------------------------------------------------------
-9.8300e+01  9.6979e+00  3.4958e+01 +/- 1.3452e+02 7.1000e+01 4.9711e+01 [bar]
 9.6979e+00  3.6830e+01  6.2829e+01 +/- 7.1000e+01 9.3617e+01 7.0451e+01 [bar]
 3.4958e+01  6.2829e+01 -1.8802e+00 +/- 4.9711e+01 7.0451e+01 7.9103e+01 [bar]

    Block[  0]  4.726842e+07
    Block[  1]  4.749306e+07
    Block[  2]  4.799607e+07
    Block[  3]  4.795417e+07
    Block[  4]  4.833286e+07
    ---------------------------------------------------------------------------
    Ideal gas pressure   4.780892e+07 +/-  3.177499e-02 [Pa]
                         4.780892e+02 +/-  5.276365e+00 [bar]


    Block[  0] -5.049039e+07
    Block[  1] -4.487175e+07
    Block[  2] -5.245428e+07
    Block[  3] -4.743871e+07
    Block[  4] -5.434777e+07
    ---------------------------------------------------------------------------
    Excess pressure  -4.992058e+07 +/-  4.727140e+06 [Pa]
                     -4.992058e+02 +/-  4.727140e+01 [bar]


    Block[  0] -3.221970e+06
    Block[  1]  2.621315e+06
    Block[  2] -4.458208e+06
    Block[  3]  5.154607e+05
    Block[  4] -6.014908e+06
    ---------------------------------------------------------------------------
    Pressure average  -2.111662e+06 +/-  4.444949e+06 [Pa]
                      -2.111662e+01 +/-  4.444949e+01 [bar]


Enthalpy of adsorption
===============================================================================

Component 0 [CO2]
-------------------------------------------------------------------------------
    Block[  0] -2.216771e+03
    Block[  1] -2.246471e+03
    Block[  2] -2.589692e+03
    Block[  3] -2.039569e+03
    Block[  4] -3.087357e+03
    ---------------------------------------------------------------------------
    Enthalpy of adsorption: -2.435972e+03 +/-  5.152557e+02 [K]
                            -2.025380e+01 +/-  4.284076e+00 [kJ/mol]
    Warning: need to subtract the ideal-gas energy.


Densities
===============================================================================

Component 0 (CO2)
    Block[  0] 244.9275
    Block[  1] 241.98166666666668
    Block[  2] 240.16833333333335
    Block[  3] 242.45833333333334
    Block[  4] 242.69083333333336
    -----------------------------------------------------------------------
    Density average   2.424453e+02 +/-  2.116079e+00 [molecules]
    Density average   1.573992e-02 +/-  1.737115e-04 [molec/A^3]
    Density average   1.149986e+03 +/-  1.269166e+01 [kg.m⁻³]

