Compiler and run-time data
===============================================================================
RASPA 3.0.4

Random seed: 1793166534

Compiled as a 64-bits application
Compiler: gcc Ubuntu Clang 18.1.3 (1ubuntu1)
Compile Date = Mar 15 2025, Compile Time = 19:39:45

2025-06-03 09:35:50.144969
Simulation started on Tue, Jun 03
The start time was 09:35:00

Hostname:    c061
OS type:     Linux on x86_64
OS release:  6.8.0-58-generic
OS version:  #60-Ubuntu SMP PREEMPT_DYNAMIC Fri Mar 14 18:29:48 UTC 2025


Mutual consistent basic set of units:
===============================================================================

Unit of temperature: 1 [K]
Unit of length:      1e-10 [m]
Unit of time:        1e-12 [s]
Unit of mass:        1.6605402e-27 [kg]
Unit of charge:      1.60217733e-19 [C/particle]


Boltzmann constant (internal units):          0.8314464919307584 [-]
represents conversion from energy (internal units) to temperature (in Kelvin)

Derived units and their conversion factors:
===============================================================================

Unit of energy:                           1.6605402000000002e-23 [J]
Unit of energy:                           10.000008872307538 [J.mol⁻¹]
Unit of velocity:                         100 [m.s⁻¹]
Unit of force:                            1.6605402000000002e-13 [N]
Unit of diffusion:                        1.0000000000000002e-08 [m².s⁻¹]
Unit of acceleration:                     1.0000000000000002e-08 [m².s⁻¹]
Unit of torque:                           1.6605402000000002e-23 [N.m]
Unit of pressure:                         16605402 [Pa]
Unit of volume:                           1e-30 [m³]
Unit of density:                          1660.5402 [kg.m⁻³]
Unit of dynamic viscosity:                1.6605401999999997e-05 [N.s.m⁻²]
Unit of enthalpy:                         1.6605402000000002e-23 [J]
Unit of polarizability:                   1.5458657349975198e-35 [-]
Unit of Coulomb potential:                167101.08000665612 [K]
Unit of dielectric constant:              1.5458657349975193e-05 [s².C².kg⁻¹.m⁻³]
Unit of dipole moment:                    1.60217733e-29 [C.m]
Unit of Debye:                            4.803206799099162 [C.m]
Unit of electric potential:               0.00010364272224473431 [V]
Unit of electric field:                   1036427.222447343 [V.m⁻¹]
Unit of isothermal compressibility:       6.02213665167516e-08 [Pa⁻¹]
Unit of heat capacity:                    10.000008872307538 [J.mol⁻¹.K⁻¹]
Unit of volumetric expansion coefficient: 1 [K⁻¹]


Internal conversion factors:
===============================================================================

Energy (internal units) to Kelvin:      1.202724284692786 [-]
Kelvin to energy (internal units):      0.8314457542157567 [-]


System definitions
===============================================================================

Temperature:          250 [K]
Beta:                 0.0048108928702210625 [-]
Pressure:             1.4e+07 [Pa]
Helium void fraction: 1 [-]

Box:      30.00000   0.00000   0.00000
           0.00000  30.00000   0.00000
           0.00000   0.00000  30.00000
Lengths:  30.00000  30.00000  30.00000
Angles:   90.00000  90.00000  90.00000
Rectangular boundary conditions



Property measurement settings
===============================================================================




Pseudo-atoms
===============================================================================

  0 - C_co2    framework-atom: false
  1 - O_co2    framework-atom: false

  0 - C_co2    mass: 12.00000, charge:  0.70000
  1 - O_co2    mass: 15.99940, charge: -0.35000

  0 - C_co2    polarizability:  0.00000
  1 - O_co2    polarizability:  0.00000

  0 - J. J. Potoff et al., AIChE J. 2001, 47, 1676–1682.
  1 - J. J. Potoff et al., AIChE J. 2001, 47, 1676–1682.

Force field status
===============================================================================

Cutoff Framework-Molecule VDW:  10.00000 [Å]
Cutoff Molecule-Molecule VDW:   10.00000 [Å]
Cutoff Coulomb:                 10.00000 [Å]

Overlap-criteria VDW:           1.000000e+05 [K]

C_co2    - C_co2    Lennard-Jones p₀/kʙ:  27.00000 [K], p₁:  2.80000 [Å]
                                  shift:   0.00000 [K], tailcorrections: true
C_co2    - O_co2    Lennard-Jones p₀/kʙ:  46.18441 [K], p₁:  2.92500 [Å]
                                  shift:   0.00000 [K], tailcorrections: true
O_co2    - O_co2    Lennard-Jones p₀/kʙ:  79.00000 [K], p₁:  3.05000 [Å]
                                  shift:   0.00000 [K], tailcorrections: true

Ewald precision: 1e-06
Ewald alpha: 0.32079885109097883
Ewald k-vectors: 10 10 10


Component definitions
===============================================================================

Component 0 [CO2]

    Type: Adsorbate

    Critical temperature:  304.1282 [K]
    Critical pressure:     7377300 [Pa]
    Acentric factor:       0.22394 [-]

    Mol-fraction:                 1 [-]
    Swappable:                   false

    Mass:                         43.9988 [-]
    Bulk fluid density:           0 [-]
    Compressibility:              0 [-]
    Excess molecules:             0 [-]

    Number Of Atoms:    3
    CBMC starting bead: 0
      0: O_co2  position  0.00000 -0.00000  1.16000, charge -0.35000
      1: C_co2  position  0.00000 -0.00000  0.00000, charge  0.70000
      2: O_co2  position  0.00000 -0.00000 -1.16000, charge -0.35000
    Diagonalized inertia-vector:      43.05758528 43.05758528 0.00000000
    Translational degrees of freedom: 3
    Rotational degrees of freedom:    2
    Shape of the molecule is: 'Linear'
    Net-charge:        0.00000000 [e]

    Move probabilities:
    Translation:                   0.331126 [-]
    Random translation:            0.000000 [-]
    Rotation:                      0.331126 [-]
    Random rotation:               0.000000 [-]
    Volume change:                 0.006623 [-]
    Reinsertion (CBMC):            0.331126 [-]
    Identity change (CBMC):        0.000000 [-]
    Swap:                          0.000000 [-]
    Swap (CBMC):                   0.000000 [-]
    Swap (CFCMC):                  0.000000 [-]
    Swap (CB/CFCMC):               0.000000 [-]
    Gibbs volume:                  0.000000 [-]
    Gibbs swap (CBMC):             0.000000 [-]
    Gibbs swap (CFCMC):            0.000000 [-]
    Widom:                         0.000000 [-]
    Widom (CFCMC):                 0.000000 [-]
    Widom (CB/CFCMC):              0.000000 [-]
    Parallel tempering:            0.000000 [-]
    Hybrid MC:                     0.000000 [-]

    number of blocking-pockets: 0

    number of bonds: 0





Number of pseudo-atoms
===============================================================================

Component   0 (CO2)
-------------------------------------------------------------------------------
    index   0 (C_co2): 150 atoms
    index   1 (O_co2): 300 atoms

Total number of pseudo-atoms:
-------------------------------------------------------------------------------
    index   0 (C_co2): 150 atoms
    index   1 (O_co2): 300 atoms




Energy status Recomputed from scratch
===============================================================================

Total potential energy/kʙ       -4.667017e+04 [K]
    external field VDW/kʙ        0.000000e+00 [K]
    external field Real/kʙ       0.000000e+00 [K]
    framework-molecule VDW/kʙ    0.000000e+00 [K]
    framework-molecule Real/kʙ   0.000000e+00 [K]
    molecule-molecule VDW/kʙ    -3.201442e+04 [K]
    molecule-molecule Real/kʙ   -1.032970e+04 [K]
    Van der Waals (Tail)/kʙ     -2.673791e+03 [K]
    Ewald Fourier/kʙ             2.014403e+04 [K]
    Ewald self/kʙ               -3.334385e+06 [K]
    Ewald exclusion/kʙ           3.312589e+06 [K]
    intra VDW/kʙ                 0.000000e+00 [K]
    intra Coulombic/kʙ           0.000000e+00 [K]
    polarization/kʙ              0.000000e+00 [K]
    dU/dlambda VDW/kʙ            0.000000e+00 [K]
    dU/dlambda Real/kʙ           0.000000e+00 [K]
    dU/dlambda Ewald/kʙ          0.000000e+00 [K]





Initialization: Current cycle: 0 out of 1000
===============================================================================

Box:      30.00000   0.00000   0.00000
           0.00000  30.00000   0.00000
           0.00000   0.00000  30.00000
Lengths:  30.00000  30.00000  30.00000
Angles:   90.00000  90.00000  90.00000
Rectangular boundary conditions

net charge:   0.00000000

component   0 (CO2) lambda:  0 occupancy:  1 (1.000000)
    net charge:   0.00000000 [e]

Amount of molecules per component :
-------------------------------------------------------------------------------
Component 0 (CO2)
    molecules:         1.500000e+02 molecules
    number density:    5.555556e-03 molec/A^3
    density:           4.058984e+02 kg/m^3

Total potential energy/kʙ       -7.959612e+04 [K]
-------------------------------------------------------------------------------
    external field VDW/kʙ        0.000000e+00 [K]
    external field Real/kʙ       0.000000e+00 [K]
    framework-molecule VDW/kʙ    0.000000e+00 [K]
    framework-molecule Real/kʙ   0.000000e+00 [K]
    molecule-molecule VDW/kʙ    -6.189814e+04 [K]
    molecule-molecule Real/kʙ   -1.263656e+04 [K]
    Van der Waals (Tail)/kʙ     -2.673791e+03 [K]
    Ewald Fourier/kʙ             1.940865e+04 [K]
    Ewald self/kʙ               -3.334385e+06 [K]
    Ewald exclusion/kʙ           3.312589e+06 [K]
    intra VDW/kʙ                 0.000000e+00 [K]
    intra Coulombic/kʙ           0.000000e+00 [K]
    polarization/kʙ              0.000000e+00 [K]
    dU/dlambda VDW/kʙ            0.000000e+00 [K]
    dU/dlambda Real/kʙ           0.000000e+00 [K]
    dU/dlambda Ewald/kʙ          0.000000e+00 [K]


Initialization: Current cycle: 100 out of 1000
===============================================================================

Box:      26.74220   0.00000   0.00000
           0.00000  26.74220   0.00000
           0.00000   0.00000  26.74220
Lengths:  26.74220  26.74220  26.74220
Angles:   90.00000  90.00000  90.00000
Rectangular boundary conditions

net charge:   0.00000000

component   0 (CO2) lambda:  0 occupancy:  1 (1.000000)
    net charge:   0.00000000 [e]

Amount of molecules per component :
-------------------------------------------------------------------------------
Component 0 (CO2)
    molecules:         1.500000e+02 molecules
    number density:    7.843319e-03 molec/A^3
    density:           5.730463e+02 kg/m^3

Total potential energy/kʙ       -1.489203e+05 [K]
-------------------------------------------------------------------------------
    external field VDW/kʙ        0.000000e+00 [K]
    external field Real/kʙ       0.000000e+00 [K]
    framework-molecule VDW/kʙ    0.000000e+00 [K]
    framework-molecule Real/kʙ   0.000000e+00 [K]
    molecule-molecule VDW/kʙ    -1.094736e+05 [K]
    molecule-molecule Real/kʙ   -2.836547e+04 [K]
    Van der Waals (Tail)/kʙ     -3.774851e+03 [K]
    Ewald Fourier/kʙ             1.448982e+04 [K]
    Ewald self/kʙ               -3.334385e+06 [K]
    Ewald exclusion/kʙ           3.312589e+06 [K]
    intra VDW/kʙ                 0.000000e+00 [K]
    intra Coulombic/kʙ           0.000000e+00 [K]
    polarization/kʙ              0.000000e+00 [K]
    dU/dlambda VDW/kʙ            0.000000e+00 [K]
    dU/dlambda Real/kʙ           0.000000e+00 [K]
    dU/dlambda Ewald/kʙ          0.000000e+00 [K]


Initialization: Current cycle: 200 out of 1000
===============================================================================

Box:      25.76505   0.00000   0.00000
           0.00000  25.76505   0.00000
           0.00000   0.00000  25.76505
Lengths:  25.76505  25.76505  25.76505
Angles:   90.00000  90.00000  90.00000
Rectangular boundary conditions

net charge:   0.00000000

component   0 (CO2) lambda:  0 occupancy:  1 (1.000000)
    net charge:   0.00000000 [e]

Amount of molecules per component :
-------------------------------------------------------------------------------
Component 0 (CO2)
    molecules:         1.500000e+02 molecules
    number density:    8.769973e-03 molec/A^3
    density:           6.407493e+02 kg/m^3

Total potential energy/kʙ       -1.536651e+05 [K]
-------------------------------------------------------------------------------
    external field VDW/kʙ        0.000000e+00 [K]
    external field Real/kʙ       0.000000e+00 [K]
    framework-molecule VDW/kʙ    0.000000e+00 [K]
    framework-molecule Real/kʙ   0.000000e+00 [K]
    molecule-molecule VDW/kʙ    -1.078212e+05 [K]
    molecule-molecule Real/kʙ   -3.367812e+04 [K]
    Van der Waals (Tail)/kʙ     -4.220833e+03 [K]
    Ewald Fourier/kʙ             1.385137e+04 [K]
    Ewald self/kʙ               -3.334385e+06 [K]
    Ewald exclusion/kʙ           3.312589e+06 [K]
    intra VDW/kʙ                 0.000000e+00 [K]
    intra Coulombic/kʙ           0.000000e+00 [K]
    polarization/kʙ              0.000000e+00 [K]
    dU/dlambda VDW/kʙ            0.000000e+00 [K]
    dU/dlambda Real/kʙ           0.000000e+00 [K]
    dU/dlambda Ewald/kʙ          0.000000e+00 [K]


Initialization: Current cycle: 300 out of 1000
===============================================================================

Box:      24.06125   0.00000   0.00000
           0.00000  24.06125   0.00000
           0.00000   0.00000  24.06125
Lengths:  24.06125  24.06125  24.06125
Angles:   90.00000  90.00000  90.00000
Rectangular boundary conditions

net charge:   0.00000000

component   0 (CO2) lambda:  0 occupancy:  1 (1.000000)
    net charge:   0.00000000 [e]

Amount of molecules per component :
-------------------------------------------------------------------------------
Component 0 (CO2)
    molecules:         1.500000e+02 molecules
    number density:    1.076804e-02 molec/A^3
    density:           7.867314e+02 kg/m^3

Total potential energy/kʙ       -1.798049e+05 [K]
-------------------------------------------------------------------------------
    external field VDW/kʙ        0.000000e+00 [K]
    external field Real/kʙ       0.000000e+00 [K]
    framework-molecule VDW/kʙ    0.000000e+00 [K]
    framework-molecule Real/kʙ   0.000000e+00 [K]
    molecule-molecule VDW/kʙ    -1.280786e+05 [K]
    molecule-molecule Real/kʙ   -3.694678e+04 [K]
    Van der Waals (Tail)/kʙ     -5.182467e+03 [K]
    Ewald Fourier/kʙ             1.219926e+04 [K]
    Ewald self/kʙ               -3.334385e+06 [K]
    Ewald exclusion/kʙ           3.312589e+06 [K]
    intra VDW/kʙ                 0.000000e+00 [K]
    intra Coulombic/kʙ           0.000000e+00 [K]
    polarization/kʙ              0.000000e+00 [K]
    dU/dlambda VDW/kʙ            0.000000e+00 [K]
    dU/dlambda Real/kʙ           0.000000e+00 [K]
    dU/dlambda Ewald/kʙ          0.000000e+00 [K]


Initialization: Current cycle: 400 out of 1000
===============================================================================

Box:      22.91900   0.00000   0.00000
           0.00000  22.91900   0.00000
           0.00000   0.00000  22.91900
Lengths:  22.91900  22.91900  22.91900
Angles:   90.00000  90.00000  90.00000
Rectangular boundary conditions

net charge:   0.00000000

component   0 (CO2) lambda:  0 occupancy:  1 (1.000000)
    net charge:   0.00000000 [e]

Amount of molecules per component :
-------------------------------------------------------------------------------
Component 0 (CO2)
    molecules:         1.500000e+02 molecules
    number density:    1.245960e-02 molec/A^3
    density:           9.103195e+02 kg/m^3

Total potential energy/kʙ       -1.901392e+05 [K]
-------------------------------------------------------------------------------
    external field VDW/kʙ        0.000000e+00 [K]
    external field Real/kʙ       0.000000e+00 [K]
    framework-molecule VDW/kʙ    0.000000e+00 [K]
    framework-molecule Real/kʙ   0.000000e+00 [K]
    molecule-molecule VDW/kʙ    -1.363370e+05 [K]
    molecule-molecule Real/kʙ   -3.809094e+04 [K]
    Van der Waals (Tail)/kʙ     -5.996584e+03 [K]
    Ewald Fourier/kʙ             1.208167e+04 [K]
    Ewald self/kʙ               -3.334385e+06 [K]
    Ewald exclusion/kʙ           3.312589e+06 [K]
    intra VDW/kʙ                 0.000000e+00 [K]
    intra Coulombic/kʙ           0.000000e+00 [K]
    polarization/kʙ              0.000000e+00 [K]
    dU/dlambda VDW/kʙ            0.000000e+00 [K]
    dU/dlambda Real/kʙ           0.000000e+00 [K]
    dU/dlambda Ewald/kʙ          0.000000e+00 [K]


Initialization: Current cycle: 500 out of 1000
===============================================================================

Box:      22.02847   0.00000   0.00000
           0.00000  22.02847   0.00000
           0.00000   0.00000  22.02847
Lengths:  22.02847  22.02847  22.02847
Angles:   90.00000  90.00000  90.00000
Rectangular boundary conditions

net charge:   0.00000000

component   0 (CO2) lambda:  0 occupancy:  1 (1.000000)
    net charge:   0.00000000 [e]

Amount of molecules per component :
-------------------------------------------------------------------------------
Component 0 (CO2)
    molecules:         1.500000e+02 molecules
    number density:    1.403260e-02 molec/A^3
    density:           1.025246e+03 kg/m^3

Total potential energy/kʙ       -2.215867e+05 [K]
-------------------------------------------------------------------------------
    external field VDW/kʙ        0.000000e+00 [K]
    external field Real/kʙ       0.000000e+00 [K]
    framework-molecule VDW/kʙ    0.000000e+00 [K]
    framework-molecule Real/kʙ   0.000000e+00 [K]
    molecule-molecule VDW/kʙ    -1.557563e+05 [K]
    molecule-molecule Real/kʙ   -4.818333e+04 [K]
    Van der Waals (Tail)/kʙ     -6.753644e+03 [K]
    Ewald Fourier/kʙ             1.090284e+04 [K]
    Ewald self/kʙ               -3.334385e+06 [K]
    Ewald exclusion/kʙ           3.312589e+06 [K]
    intra VDW/kʙ                 0.000000e+00 [K]
    intra Coulombic/kʙ           0.000000e+00 [K]
    polarization/kʙ              0.000000e+00 [K]
    dU/dlambda VDW/kʙ            0.000000e+00 [K]
    dU/dlambda Real/kʙ           0.000000e+00 [K]
    dU/dlambda Ewald/kʙ          0.000000e+00 [K]


Initialization: Current cycle: 600 out of 1000
===============================================================================

Box:      22.03088   0.00000   0.00000
           0.00000  22.03088   0.00000
           0.00000   0.00000  22.03088
Lengths:  22.03088  22.03088  22.03088
Angles:   90.00000  90.00000  90.00000
Rectangular boundary conditions

net charge:   0.00000000

component   0 (CO2) lambda:  0 occupancy:  1 (1.000000)
    net charge:   0.00000000 [e]

Amount of molecules per component :
-------------------------------------------------------------------------------
Component 0 (CO2)
    molecules:         1.500000e+02 molecules
    number density:    1.402801e-02 molec/A^3
    density:           1.024910e+03 kg/m^3

Total potential energy/kʙ       -2.237975e+05 [K]
-------------------------------------------------------------------------------
    external field VDW/kʙ        0.000000e+00 [K]
    external field Real/kʙ       0.000000e+00 [K]
    framework-molecule VDW/kʙ    0.000000e+00 [K]
    framework-molecule Real/kʙ   0.000000e+00 [K]
    molecule-molecule VDW/kʙ    -1.581295e+05 [K]
    molecule-molecule Real/kʙ   -4.798175e+04 [K]
    Van der Waals (Tail)/kʙ     -6.751432e+03 [K]
    Ewald Fourier/kʙ             1.086147e+04 [K]
    Ewald self/kʙ               -3.334385e+06 [K]
    Ewald exclusion/kʙ           3.312589e+06 [K]
    intra VDW/kʙ                 0.000000e+00 [K]
    intra Coulombic/kʙ           0.000000e+00 [K]
    polarization/kʙ              0.000000e+00 [K]
    dU/dlambda VDW/kʙ            0.000000e+00 [K]
    dU/dlambda Real/kʙ           0.000000e+00 [K]
    dU/dlambda Ewald/kʙ          0.000000e+00 [K]


Initialization: Current cycle: 700 out of 1000
===============================================================================

Box:      21.76838   0.00000   0.00000
           0.00000  21.76838   0.00000
           0.00000   0.00000  21.76838
Lengths:  21.76838  21.76838  21.76838
Angles:   90.00000  90.00000  90.00000
Rectangular boundary conditions

net charge:   0.00000000

component   0 (CO2) lambda:  0 occupancy:  1 (1.000000)
    net charge:   0.00000000 [e]

Amount of molecules per component :
-------------------------------------------------------------------------------
Component 0 (CO2)
    molecules:         1.500000e+02 molecules
    number density:    1.454163e-02 molec/A^3
    density:           1.062437e+03 kg/m^3

Total potential energy/kʙ       -2.292200e+05 [K]
-------------------------------------------------------------------------------
    external field VDW/kʙ        0.000000e+00 [K]
    external field Real/kʙ       0.000000e+00 [K]
    framework-molecule VDW/kʙ    0.000000e+00 [K]
    framework-molecule Real/kʙ   0.000000e+00 [K]
    molecule-molecule VDW/kʙ    -1.653777e+05 [K]
    molecule-molecule Real/kʙ   -4.607193e+04 [K]
    Van der Waals (Tail)/kʙ     -6.998632e+03 [K]
    Ewald Fourier/kʙ             1.102448e+04 [K]
    Ewald self/kʙ               -3.334385e+06 [K]
    Ewald exclusion/kʙ           3.312589e+06 [K]
    intra VDW/kʙ                 0.000000e+00 [K]
    intra Coulombic/kʙ           0.000000e+00 [K]
    polarization/kʙ              0.000000e+00 [K]
    dU/dlambda VDW/kʙ            0.000000e+00 [K]
    dU/dlambda Real/kʙ           0.000000e+00 [K]
    dU/dlambda Ewald/kʙ          0.000000e+00 [K]


Initialization: Current cycle: 800 out of 1000
===============================================================================

Box:      21.56345   0.00000   0.00000
           0.00000  21.56345   0.00000
           0.00000   0.00000  21.56345
Lengths:  21.56345  21.56345  21.56345
Angles:   90.00000  90.00000  90.00000
Rectangular boundary conditions

net charge:   0.00000000

component   0 (CO2) lambda:  0 occupancy:  1 (1.000000)
    net charge:   0.00000000 [e]

Amount of molecules per component :
-------------------------------------------------------------------------------
Component 0 (CO2)
    molecules:         1.500000e+02 molecules
    number density:    1.496016e-02 molec/A^3
    density:           1.093015e+03 kg/m^3

Total potential energy/kʙ       -2.355494e+05 [K]
-------------------------------------------------------------------------------
    external field VDW/kʙ        0.000000e+00 [K]
    external field Real/kʙ       0.000000e+00 [K]
    framework-molecule VDW/kʙ    0.000000e+00 [K]
    framework-molecule Real/kʙ   0.000000e+00 [K]
    molecule-molecule VDW/kʙ    -1.725259e+05 [K]
    molecule-molecule Real/kʙ   -4.501743e+04 [K]
    Van der Waals (Tail)/kʙ     -7.200062e+03 [K]
    Ewald Fourier/kʙ             1.099029e+04 [K]
    Ewald self/kʙ               -3.334385e+06 [K]
    Ewald exclusion/kʙ           3.312589e+06 [K]
    intra VDW/kʙ                 0.000000e+00 [K]
    intra Coulombic/kʙ           0.000000e+00 [K]
    polarization/kʙ              0.000000e+00 [K]
    dU/dlambda VDW/kʙ            0.000000e+00 [K]
    dU/dlambda Real/kʙ           0.000000e+00 [K]
    dU/dlambda Ewald/kʙ          0.000000e+00 [K]


Initialization: Current cycle: 900 out of 1000
===============================================================================

Box:      21.46279   0.00000   0.00000
           0.00000  21.46279   0.00000
           0.00000   0.00000  21.46279
Lengths:  21.46279  21.46279  21.46279
Angles:   90.00000  90.00000  90.00000
Rectangular boundary conditions

net charge:   0.00000000

component   0 (CO2) lambda:  0 occupancy:  1 (1.000000)
    net charge:   0.00000000 [e]

Amount of molecules per component :
-------------------------------------------------------------------------------
Component 0 (CO2)
    molecules:         1.500000e+02 molecules
    number density:    1.517166e-02 molec/A^3
    density:           1.108467e+03 kg/m^3

Total potential energy/kʙ       -2.380227e+05 [K]
-------------------------------------------------------------------------------
    external field VDW/kʙ        0.000000e+00 [K]
    external field Real/kʙ       0.000000e+00 [K]
    framework-molecule VDW/kʙ    0.000000e+00 [K]
    framework-molecule Real/kʙ   0.000000e+00 [K]
    molecule-molecule VDW/kʙ    -1.710617e+05 [K]
    molecule-molecule Real/kʙ   -4.841235e+04 [K]
    Van der Waals (Tail)/kʙ     -7.301850e+03 [K]
    Ewald Fourier/kʙ             1.054947e+04 [K]
    Ewald self/kʙ               -3.334385e+06 [K]
    Ewald exclusion/kʙ           3.312589e+06 [K]
    intra VDW/kʙ                 0.000000e+00 [K]
    intra Coulombic/kʙ           0.000000e+00 [K]
    polarization/kʙ              0.000000e+00 [K]
    dU/dlambda VDW/kʙ            0.000000e+00 [K]
    dU/dlambda Real/kʙ           0.000000e+00 [K]
    dU/dlambda Ewald/kʙ          0.000000e+00 [K]


Current cycle: 0 out of 5000
===============================================================================

Box:      21.69693   0.00000   0.00000  Average:  21.69693   0.00000   0.00000
           0.00000  21.69693   0.00000             0.00000  21.69693   0.00000
           0.00000   0.00000  21.69693             0.00000   0.00000  21.69693
Lengths:  21.69693  21.69693  21.69693  Average:  21.69693  21.69693  21.69693
Angles:   90.00000  90.00000  90.00000  Average:  90.00000  90.00000  90.00000
Rectangular boundary conditions

net charge:   0.00000000

component 0 (CO2) lambda:  0 occupancy:  1 (1.000000)
    net charge:   0.00000000 [e]

Amount of molecules per component :
-------------------------------------------------------------------------------
Component 0 (CO2)
    molecules:      1.500000e+02 molecules  (1.500000e+02 +/- 0.000000e+00)
    number density: 1.468576e-02 molec./A^3 (1.468576e-02 +/- 0.000000e+00)
    density:        1.072966e+03 kg/m^3     (1.072966e+03 +/- 0.000000e+00)

Average pressure tensor: 
-------------------------------------------------------------------------------
 5.0690e+02  0.0000e+00  0.0000e+00 +/- 0.0000e+00 0.0000e+00 0.0000e+00 [bar]
 0.0000e+00  5.0690e+02  0.0000e+00 +/- 0.0000e+00 0.0000e+00 0.0000e+00 [bar]
 0.0000e+00  0.0000e+00  5.0690e+02 +/- 0.0000e+00 0.0000e+00 0.0000e+00 [bar]
Ideal-gas pressure:   5.068973e+02 +/ 0.000000e+00 [bar]
Excess pressure:      0.000000e+00 +/ 0.000000e+00 [bar]
Pressure:             5.068973e+02 +/ 0.000000e+00 [bar]

Total potential energy/kʙ  -2.313783e+05 (-2.313783e+05 +/- 0.000000e+00) [K]
-------------------------------------------------------------------------------
ExternalField-molecule
    Van der Waals/kʙ        0.000000e+00 ( 0.000000e+00 +/- 0.000000e+00) [K]
Framework-molecule
    Van der Waals/kʙ        0.000000e+00 ( 0.000000e+00 +/- 0.000000e+00) [K]
    Van der Waals (Tail)/kʙ 0.000000e+00 ( 0.000000e+00 +/- 0.000000e+00) [K]
    Coulombic Real/kʙ       0.000000e+00 ( 0.000000e+00 +/- 0.000000e+00) [K]
    Coulombic Fourier/kʙ    0.000000e+00 ( 0.000000e+00 +/- 0.000000e+00) [K]
Molecule-molecule
    Van der Waals/kʙ       -1.629531e+05 (-1.629531e+05 +/- 0.000000e+00) [K]
    Van der Waals (Tail)/kʙ-7.067995e+03 (-7.067995e+03 +/- 0.000000e+00) [K]
    Coulombic Real/kʙ      -4.961882e+04 (-4.961882e+04 +/- 0.000000e+00) [K]
    Coulombic Fourier/kʙ   -1.173830e+04 (-1.173830e+04 +/- 0.000000e+00) [K]
    Molecule Intra/kʙ       0.000000e+00 ( 0.000000e+00 +/- 0.000000e+00) [K]

Current cycle: 100 out of 5000
===============================================================================

Box:      21.58865   0.00000   0.00000  Average:  21.56220   0.00000   0.00000
           0.00000  21.58865   0.00000             0.00000  21.56220   0.00000
           0.00000   0.00000  21.58865             0.00000   0.00000  21.56220
Lengths:  21.58865  21.58865  21.58865  Average:  21.56220  21.56220  21.56220
Angles:   90.00000  90.00000  90.00000  Average:  90.00000  90.00000  90.00000
Rectangular boundary conditions

net charge:   0.00000000

component 0 (CO2) lambda:  0 occupancy:  1 (1.000000)
    net charge:   0.00000000 [e]

Amount of molecules per component :
-------------------------------------------------------------------------------
Component 0 (CO2)
    molecules:      1.500000e+02 molecules  (1.500000e+02 +/- 0.000000e+00)
    number density: 1.490784e-02 molec./A^3 (1.496409e-02 +/- 0.000000e+00)
    density:        1.089192e+03 kg/m^3     (1.093302e+03 +/- 0.000000e+00)

Average pressure tensor: 
-------------------------------------------------------------------------------
-1.2748e+02  9.7577e+01  2.9630e+01 +/- 0.0000e+00 0.0000e+00 0.0000e+00 [bar]
 9.7577e+01  1.3535e+02 -8.8154e+01 +/- 0.0000e+00 0.0000e+00 0.0000e+00 [bar]
 2.9630e+01 -8.8154e+01  3.3506e+02 +/- 0.0000e+00 0.0000e+00 0.0000e+00 [bar]
Ideal-gas pressure:   5.165044e+02 +/ 0.000000e+00 [bar]
Excess pressure:     -4.021924e+02 +/ 0.000000e+00 [bar]
Pressure:             1.143120e+02 +/ 0.000000e+00 [bar]

Total potential energy/kʙ  -2.281106e+05 (-2.342054e+05 +/- 0.000000e+00) [K]
-------------------------------------------------------------------------------
ExternalField-molecule
    Van der Waals/kʙ        0.000000e+00 ( 0.000000e+00 +/- 0.000000e+00) [K]
Framework-molecule
    Van der Waals/kʙ        0.000000e+00 ( 0.000000e+00 +/- 0.000000e+00) [K]
    Van der Waals (Tail)/kʙ 0.000000e+00 ( 0.000000e+00 +/- 0.000000e+00) [K]
    Coulombic Real/kʙ       0.000000e+00 ( 0.000000e+00 +/- 0.000000e+00) [K]
    Coulombic Fourier/kʙ    0.000000e+00 ( 0.000000e+00 +/- 0.000000e+00) [K]
Molecule-molecule
    Van der Waals/kʙ       -1.683818e+05 (-1.673463e+05 +/- 0.000000e+00) [K]
    Van der Waals (Tail)/kʙ-7.174878e+03 (-7.189154e+03 +/- 0.000000e+00) [K]
    Coulombic Real/kʙ      -4.136627e+04 (-4.777389e+04 +/- 0.000000e+00) [K]
    Coulombic Fourier/kʙ   -1.118767e+04 (-1.189608e+04 +/- 0.000000e+00) [K]
    Molecule Intra/kʙ       0.000000e+00 ( 0.000000e+00 +/- 0.000000e+00) [K]

Current cycle: 200 out of 5000
===============================================================================

Box:      21.89542   0.00000   0.00000  Average:  21.69677   0.00000   0.00000
           0.00000  21.89542   0.00000             0.00000  21.69677   0.00000
           0.00000   0.00000  21.89542             0.00000   0.00000  21.69677
Lengths:  21.89542  21.89542  21.89542  Average:  21.69677  21.69677  21.69677
Angles:   90.00000  90.00000  90.00000  Average:  90.00000  90.00000  90.00000
Rectangular boundary conditions

net charge:   0.00000000

component 0 (CO2) lambda:  0 occupancy:  1 (1.000000)
    net charge:   0.00000000 [e]

Amount of molecules per component :
-------------------------------------------------------------------------------
Component 0 (CO2)
    molecules:      1.500000e+02 molecules  (1.500000e+02 +/- 0.000000e+00)
    number density: 1.428997e-02 molec./A^3 (1.469128e-02 +/- 0.000000e+00)
    density:        1.044050e+03 kg/m^3     (1.073370e+03 +/- 0.000000e+00)

Average pressure tensor: 
-------------------------------------------------------------------------------
 1.0166e+02  1.3827e+02 -3.8813e+01 +/- 0.0000e+00 0.0000e+00 0.0000e+00 [bar]
 1.3827e+02  1.0831e+02 -2.2393e+01 +/- 0.0000e+00 0.0000e+00 0.0000e+00 [bar]
-3.8813e+01 -2.2393e+01  2.5159e+02 +/- 0.0000e+00 0.0000e+00 0.0000e+00 [bar]
Ideal-gas pressure:   5.070878e+02 +/ 0.000000e+00 [bar]
Excess pressure:     -3.532371e+02 +/ 0.000000e+00 [bar]
Pressure:             1.538508e+02 +/ 0.000000e+00 [bar]

Total potential energy/kʙ  -2.262650e+05 (-2.291858e+05 +/- 0.000000e+00) [K]
-------------------------------------------------------------------------------
ExternalField-molecule
    Van der Waals/kʙ        0.000000e+00 ( 0.000000e+00 +/- 0.000000e+00) [K]
Framework-molecule
    Van der Waals/kʙ        0.000000e+00 ( 0.000000e+00 +/- 0.000000e+00) [K]
    Van der Waals (Tail)/kʙ 0.000000e+00 ( 0.000000e+00 +/- 0.000000e+00) [K]
    Coulombic Real/kʙ       0.000000e+00 ( 0.000000e+00 +/- 0.000000e+00) [K]
    Coulombic Fourier/kʙ    0.000000e+00 ( 0.000000e+00 +/- 0.000000e+00) [K]
Molecule-molecule
    Van der Waals/kʙ       -1.594509e+05 (-1.642451e+05 +/- 0.000000e+00) [K]
    Van der Waals (Tail)/kʙ-6.877512e+03 (-7.062832e+03 +/- 0.000000e+00) [K]
    Coulombic Real/kʙ      -4.767571e+04 (-4.614548e+04 +/- 0.000000e+00) [K]
    Coulombic Fourier/kʙ   -1.226089e+04 (-1.173246e+04 +/- 0.000000e+00) [K]
    Molecule Intra/kʙ       0.000000e+00 ( 0.000000e+00 +/- 0.000000e+00) [K]

Current cycle: 300 out of 5000
===============================================================================

Box:      21.81815   0.00000   0.00000  Average:  21.75796   0.00000   0.00000
           0.00000  21.81815   0.00000             0.00000  21.75796   0.00000
           0.00000   0.00000  21.81815             0.00000   0.00000  21.75796
Lengths:  21.81815  21.81815  21.81815  Average:  21.75796  21.75796  21.75796
Angles:   90.00000  90.00000  90.00000  Average:  90.00000  90.00000  90.00000
Rectangular boundary conditions

net charge:   0.00000000

component 0 (CO2) lambda:  0 occupancy:  1 (1.000000)
    net charge:   0.00000000 [e]

Amount of molecules per component :
-------------------------------------------------------------------------------
Component 0 (CO2)
    molecules:      1.500000e+02 molecules  (1.500000e+02 +/- 0.000000e+00)
    number density: 1.444233e-02 molec./A^3 (1.456794e-02 +/- 0.000000e+00)
    density:        1.055181e+03 kg/m^3     (1.064359e+03 +/- 0.000000e+00)

Average pressure tensor: 
-------------------------------------------------------------------------------
 1.1025e+02  5.8228e+01  4.7885e+01 +/- 0.0000e+00 0.0000e+00 0.0000e+00 [bar]
 5.8228e+01  5.6326e+01 -2.3405e+01 +/- 0.0000e+00 0.0000e+00 0.0000e+00 [bar]
 4.7885e+01 -2.3405e+01  2.2316e+02 +/- 0.0000e+00 0.0000e+00 0.0000e+00 [bar]
Ideal-gas pressure:   5.028309e+02 +/ 0.000000e+00 [bar]
Excess pressure:     -3.729197e+02 +/ 0.000000e+00 [bar]
Pressure:             1.299112e+02 +/ 0.000000e+00 [bar]

Total potential energy/kʙ  -2.256992e+05 (-2.260356e+05 +/- 0.000000e+00) [K]
-------------------------------------------------------------------------------
ExternalField-molecule
    Van der Waals/kʙ        0.000000e+00 ( 0.000000e+00 +/- 0.000000e+00) [K]
Framework-molecule
    Van der Waals/kʙ        0.000000e+00 ( 0.000000e+00 +/- 0.000000e+00) [K]
    Van der Waals (Tail)/kʙ 0.000000e+00 ( 0.000000e+00 +/- 0.000000e+00) [K]
    Coulombic Real/kʙ       0.000000e+00 ( 0.000000e+00 +/- 0.000000e+00) [K]
    Coulombic Fourier/kʙ    0.000000e+00 ( 0.000000e+00 +/- 0.000000e+00) [K]
Molecule-molecule
    Van der Waals/kʙ       -1.661615e+05 (-1.630048e+05 +/- 0.000000e+00) [K]
    Van der Waals (Tail)/kʙ-6.950838e+03 (-7.004044e+03 +/- 0.000000e+00) [K]
    Coulombic Real/kʙ      -4.191378e+04 (-4.459414e+04 +/- 0.000000e+00) [K]
    Coulombic Fourier/kʙ   -1.067308e+04 (-1.143262e+04 +/- 0.000000e+00) [K]
    Molecule Intra/kʙ       0.000000e+00 ( 0.000000e+00 +/- 0.000000e+00) [K]

Current cycle: 400 out of 5000
===============================================================================

Box:      22.06941   0.00000   0.00000  Average:  21.78739   0.00000   0.00000
           0.00000  22.06941   0.00000             0.00000  21.78739   0.00000
           0.00000   0.00000  22.06941             0.00000   0.00000  21.78739
Lengths:  22.06941  22.06941  22.06941  Average:  21.78739  21.78739  21.78739
Angles:   90.00000  90.00000  90.00000  Average:  90.00000  90.00000  90.00000
Rectangular boundary conditions

net charge:   0.00000000

component 0 (CO2) lambda:  0 occupancy:  1 (1.000000)
    net charge:   0.00000000 [e]

Amount of molecules per component :
-------------------------------------------------------------------------------
Component 0 (CO2)
    molecules:      1.500000e+02 molecules  (1.500000e+02 +/- 0.000000e+00)
    number density: 1.395466e-02 molec./A^3 (1.450959e-02 +/- 0.000000e+00)
    density:        1.019551e+03 kg/m^3     (1.060095e+03 +/- 0.000000e+00)

Average pressure tensor: 
-------------------------------------------------------------------------------
 1.5710e+02  1.5042e+01  4.1389e+01 +/- 0.0000e+00 0.0000e+00 0.0000e+00 [bar]
 1.5042e+01  1.1417e+01 -4.2114e+01 +/- 0.0000e+00 0.0000e+00 0.0000e+00 [bar]
 4.1389e+01 -4.2114e+01  2.9881e+02 +/- 0.0000e+00 0.0000e+00 0.0000e+00 [bar]
Ideal-gas pressure:   5.008168e+02 +/ 0.000000e+00 [bar]
Excess pressure:     -3.450414e+02 +/ 0.000000e+00 [bar]
Pressure:             1.557753e+02 +/ 0.000000e+00 [bar]

Total potential energy/kʙ  -2.235076e+05 (-2.262068e+05 +/- 0.000000e+00) [K]
-------------------------------------------------------------------------------
ExternalField-molecule
    Van der Waals/kʙ        0.000000e+00 ( 0.000000e+00 +/- 0.000000e+00) [K]
Framework-molecule
    Van der Waals/kʙ        0.000000e+00 ( 0.000000e+00 +/- 0.000000e+00) [K]
    Van der Waals (Tail)/kʙ 0.000000e+00 ( 0.000000e+00 +/- 0.000000e+00) [K]
    Coulombic Real/kʙ       0.000000e+00 ( 0.000000e+00 +/- 0.000000e+00) [K]
    Coulombic Fourier/kʙ    0.000000e+00 ( 0.000000e+00 +/- 0.000000e+00) [K]
Molecule-molecule
    Van der Waals/kʙ       -1.594344e+05 (-1.628407e+05 +/- 0.000000e+00) [K]
    Van der Waals (Tail)/kʙ-6.716132e+03 (-6.985593e+03 +/- 0.000000e+00) [K]
    Coulombic Real/kʙ      -4.642029e+04 (-4.500486e+04 +/- 0.000000e+00) [K]
    Coulombic Fourier/kʙ   -1.093681e+04 (-1.137564e+04 +/- 0.000000e+00) [K]
    Molecule Intra/kʙ       0.000000e+00 ( 0.000000e+00 +/- 0.000000e+00) [K]

Current cycle: 500 out of 5000
===============================================================================

Box:      21.89445   0.00000   0.00000  Average:  21.85070   0.00000   0.00000
           0.00000  21.89445   0.00000             0.00000  21.85070   0.00000
           0.00000   0.00000  21.89445             0.00000   0.00000  21.85070
Lengths:  21.89445  21.89445  21.89445  Average:  21.85070  21.85070  21.85070
Angles:   90.00000  90.00000  90.00000  Average:  90.00000  90.00000  90.00000
Rectangular boundary conditions

net charge:   0.00000000

component 0 (CO2) lambda:  0 occupancy:  1 (1.000000)
    net charge:   0.00000000 [e]

Amount of molecules per component :
-------------------------------------------------------------------------------
Component 0 (CO2)
    molecules:      1.500000e+02 molecules  (1.500000e+02 +/- 0.000000e+00)
    number density: 1.429188e-02 molec./A^3 (1.438609e-02 +/- 0.000000e+00)
    density:        1.044189e+03 kg/m^3     (1.051073e+03 +/- 0.000000e+00)

Average pressure tensor: 
-------------------------------------------------------------------------------
 1.1633e+02  3.2226e+01 -2.2832e+01 +/- 0.0000e+00 0.0000e+00 0.0000e+00 [bar]
 3.2226e+01  1.6383e+01 -1.5482e+01 +/- 0.0000e+00 0.0000e+00 0.0000e+00 [bar]
-2.2832e+01 -1.5482e+01  3.4336e+02 +/- 0.0000e+00 0.0000e+00 0.0000e+00 [bar]
Ideal-gas pressure:   4.965541e+02 +/ 0.000000e+00 [bar]
Excess pressure:     -3.378641e+02 +/ 0.000000e+00 [bar]
Pressure:             1.586900e+02 +/ 0.000000e+00 [bar]

Total potential energy/kʙ  -2.222829e+05 (-2.251109e+05 +/- 0.000000e+00) [K]
-------------------------------------------------------------------------------
ExternalField-molecule
    Van der Waals/kʙ        0.000000e+00 ( 0.000000e+00 +/- 0.000000e+00) [K]
Framework-molecule
    Van der Waals/kʙ        0.000000e+00 ( 0.000000e+00 +/- 0.000000e+00) [K]
    Van der Waals (Tail)/kʙ 0.000000e+00 ( 0.000000e+00 +/- 0.000000e+00) [K]
    Coulombic Real/kʙ       0.000000e+00 ( 0.000000e+00 +/- 0.000000e+00) [K]
    Coulombic Fourier/kʙ    0.000000e+00 ( 0.000000e+00 +/- 0.000000e+00) [K]
Molecule-molecule
    Van der Waals/kʙ       -1.581817e+05 (-1.614731e+05 +/- 0.000000e+00) [K]
    Van der Waals (Tail)/kʙ-6.878430e+03 (-6.934769e+03 +/- 0.000000e+00) [K]
    Coulombic Real/kʙ      -4.549615e+04 (-4.531258e+04 +/- 0.000000e+00) [K]
    Coulombic Fourier/kʙ   -1.172668e+04 (-1.139043e+04 +/- 0.000000e+00) [K]
    Molecule Intra/kʙ       0.000000e+00 ( 0.000000e+00 +/- 0.000000e+00) [K]

Current cycle: 600 out of 5000
===============================================================================

Box:      21.74951   0.00000   0.00000  Average:  21.84929   0.00000   0.00000
           0.00000  21.74951   0.00000             0.00000  21.84929   0.00000
           0.00000   0.00000  21.74951             0.00000   0.00000  21.84929
Lengths:  21.74951  21.74951  21.74951  Average:  21.84929  21.84929  21.84929
Angles:   90.00000  90.00000  90.00000  Average:  90.00000  90.00000  90.00000
Rectangular boundary conditions

net charge:   0.00000000

component 0 (CO2) lambda:  0 occupancy:  1 (1.000000)
    net charge:   0.00000000 [e]

Amount of molecules per component :
-------------------------------------------------------------------------------
Component 0 (CO2)
    molecules:      1.500000e+02 molecules  (1.500000e+02 +/- 0.000000e+00)
    number density: 1.457951e-02 molec./A^3 (1.438785e-02 +/- 0.000000e+00)
    density:        1.065204e+03 kg/m^3     (1.051201e+03 +/- 0.000000e+00)

Average pressure tensor: 
-------------------------------------------------------------------------------
 1.1205e+02  2.4138e+01 -1.4979e+01 +/- 0.0000e+00 0.0000e+00 0.0000e+00 [bar]
 2.4138e+01 -3.6351e+00  2.2631e+01 +/- 0.0000e+00 0.0000e+00 0.0000e+00 [bar]
-1.4979e+01  2.2631e+01  3.0642e+02 +/- 0.0000e+00 0.0000e+00 0.0000e+00 [bar]
Ideal-gas pressure:   4.966147e+02 +/ 0.000000e+00 [bar]
Excess pressure:     -3.583350e+02 +/ 0.000000e+00 [bar]
Pressure:             1.382797e+02 +/ 0.000000e+00 [bar]

Total potential energy/kʙ  -2.351063e+05 (-2.255012e+05 +/- 0.000000e+00) [K]
-------------------------------------------------------------------------------
ExternalField-molecule
    Van der Waals/kʙ        0.000000e+00 ( 0.000000e+00 +/- 0.000000e+00) [K]
Framework-molecule
    Van der Waals/kʙ        0.000000e+00 ( 0.000000e+00 +/- 0.000000e+00) [K]
    Van der Waals (Tail)/kʙ 0.000000e+00 ( 0.000000e+00 +/- 0.000000e+00) [K]
    Coulombic Real/kʙ       0.000000e+00 ( 0.000000e+00 +/- 0.000000e+00) [K]
    Coulombic Fourier/kʙ    0.000000e+00 ( 0.000000e+00 +/- 0.000000e+00) [K]
Molecule-molecule
    Van der Waals/kʙ       -1.720416e+05 (-1.618593e+05 +/- 0.000000e+00) [K]
    Van der Waals (Tail)/kʙ-7.016862e+03 (-6.937417e+03 +/- 0.000000e+00) [K]
    Coulombic Real/kʙ      -4.530274e+04 (-4.536749e+04 +/- 0.000000e+00) [K]
    Coulombic Fourier/kʙ   -1.074505e+04 (-1.133700e+04 +/- 0.000000e+00) [K]
    Molecule Intra/kʙ       0.000000e+00 ( 0.000000e+00 +/- 0.000000e+00) [K]

Current cycle: 700 out of 5000
===============================================================================

Box:      21.65724   0.00000   0.00000  Average:  21.81110   0.00000   0.00000
           0.00000  21.65724   0.00000             0.00000  21.81110   0.00000
           0.00000   0.00000  21.65724             0.00000   0.00000  21.81110
Lengths:  21.65724  21.65724  21.65724  Average:  21.81110  21.81110  21.81110
Angles:   90.00000  90.00000  90.00000  Average:  90.00000  90.00000  90.00000
Rectangular boundary conditions

net charge:   0.00000000

component 0 (CO2) lambda:  0 occupancy:  1 (1.000000)
    net charge:   0.00000000 [e]

Amount of molecules per component :
-------------------------------------------------------------------------------
Component 0 (CO2)
    molecules:      1.500000e+02 molecules  (1.500000e+02 +/- 0.000000e+00)
    number density: 1.476664e-02 molec./A^3 (1.446428e-02 +/- 0.000000e+00)
    density:        1.078876e+03 kg/m^3     (1.056785e+03 +/- 0.000000e+00)

Average pressure tensor: 
-------------------------------------------------------------------------------
 9.1219e+01 -1.4493e+01  7.5854e+00 +/- 0.0000e+00 0.0000e+00 0.0000e+00 [bar]
-1.4493e+01 -2.9101e+00  3.1800e+00 +/- 0.0000e+00 0.0000e+00 0.0000e+00 [bar]
 7.5854e+00  3.1800e+00  3.0860e+02 +/- 0.0000e+00 0.0000e+00 0.0000e+00 [bar]
Ideal-gas pressure:   4.992527e+02 +/ 0.000000e+00 [bar]
Excess pressure:     -3.669513e+02 +/ 0.000000e+00 [bar]
Pressure:             1.323014e+02 +/ 0.000000e+00 [bar]

Total potential energy/kʙ  -2.399331e+05 (-2.272108e+05 +/- 0.000000e+00) [K]
-------------------------------------------------------------------------------
ExternalField-molecule
    Van der Waals/kʙ        0.000000e+00 ( 0.000000e+00 +/- 0.000000e+00) [K]
Framework-molecule
    Van der Waals/kʙ        0.000000e+00 ( 0.000000e+00 +/- 0.000000e+00) [K]
    Van der Waals (Tail)/kʙ 0.000000e+00 ( 0.000000e+00 +/- 0.000000e+00) [K]
    Coulombic Real/kʙ       0.000000e+00 ( 0.000000e+00 +/- 0.000000e+00) [K]
    Coulombic Fourier/kʙ    0.000000e+00 ( 0.000000e+00 +/- 0.000000e+00) [K]
Molecule-molecule
    Van der Waals/kʙ       -1.682639e+05 (-1.627204e+05 +/- 0.000000e+00) [K]
    Van der Waals (Tail)/kʙ-7.106925e+03 (-6.974129e+03 +/- 0.000000e+00) [K]
    Coulombic Real/kʙ      -5.156088e+04 (-4.602918e+04 +/- 0.000000e+00) [K]
    Coulombic Fourier/kʙ   -1.300136e+04 (-1.148708e+04 +/- 0.000000e+00) [K]
    Molecule Intra/kʙ       0.000000e+00 ( 0.000000e+00 +/- 0.000000e+00) [K]

Current cycle: 800 out of 5000
===============================================================================

Box:      21.54831   0.00000   0.00000  Average:  21.77637   0.00000   0.00000
           0.00000  21.54831   0.00000             0.00000  21.77637   0.00000
           0.00000   0.00000  21.54831             0.00000   0.00000  21.77637
Lengths:  21.54831  21.54831  21.54831  Average:  21.77637  21.77637  21.77637
Angles:   90.00000  90.00000  90.00000  Average:  90.00000  90.00000  90.00000
Rectangular boundary conditions

net charge:   0.00000000

component 0 (CO2) lambda:  0 occupancy:  1 (1.000000)
    net charge:   0.00000000 [e]

Amount of molecules per component :
-------------------------------------------------------------------------------
Component 0 (CO2)
    molecules:      1.500000e+02 molecules  (1.500000e+02 +/- 0.000000e+00)
    number density: 1.499172e-02 molec./A^3 (1.453442e-02 +/- 0.000000e+00)
    density:        1.095321e+03 kg/m^3     (1.061910e+03 +/- 0.000000e+00)

Average pressure tensor: 
-------------------------------------------------------------------------------
 1.3007e+02 -2.1360e+01  1.1630e+01 +/- 0.0000e+00 0.0000e+00 0.0000e+00 [bar]
-2.1360e+01  2.9971e+01 -2.1465e+01 +/- 0.0000e+00 0.0000e+00 0.0000e+00 [bar]
 1.1630e+01 -2.1465e+01  3.1715e+02 +/- 0.0000e+00 0.0000e+00 0.0000e+00 [bar]
Ideal-gas pressure:   5.016738e+02 +/ 0.000000e+00 [bar]
Excess pressure:     -3.426101e+02 +/ 0.000000e+00 [bar]
Pressure:             1.590637e+02 +/ 0.000000e+00 [bar]

Total potential energy/kʙ  -2.381821e+05 (-2.281939e+05 +/- 0.000000e+00) [K]
-------------------------------------------------------------------------------
ExternalField-molecule
    Van der Waals/kʙ        0.000000e+00 ( 0.000000e+00 +/- 0.000000e+00) [K]
Framework-molecule
    Van der Waals/kʙ        0.000000e+00 ( 0.000000e+00 +/- 0.000000e+00) [K]
    Van der Waals (Tail)/kʙ 0.000000e+00 ( 0.000000e+00 +/- 0.000000e+00) [K]
    Coulombic Real/kʙ       0.000000e+00 ( 0.000000e+00 +/- 0.000000e+00) [K]
    Coulombic Fourier/kʙ    0.000000e+00 ( 0.000000e+00 +/- 0.000000e+00) [K]
Molecule-molecule
    Van der Waals/kʙ       -1.741786e+05 (-1.633380e+05 +/- 0.000000e+00) [K]
    Van der Waals (Tail)/kʙ-7.215249e+03 (-7.007290e+03 +/- 0.000000e+00) [K]
    Coulombic Real/kʙ      -4.555465e+04 (-4.630256e+04 +/- 0.000000e+00) [K]
    Coulombic Fourier/kʙ   -1.123364e+04 (-1.154608e+04 +/- 0.000000e+00) [K]
    Molecule Intra/kʙ       0.000000e+00 ( 0.000000e+00 +/- 0.000000e+00) [K]

Current cycle: 900 out of 5000
===============================================================================

Box:      21.40045   0.00000   0.00000  Average:  21.72403   0.00000   0.00000
           0.00000  21.40045   0.00000             0.00000  21.72403   0.00000
           0.00000   0.00000  21.40045             0.00000   0.00000  21.72403
Lengths:  21.40045  21.40045  21.40045  Average:  21.72403  21.72403  21.72403
Angles:   90.00000  90.00000  90.00000  Average:  90.00000  90.00000  90.00000
Rectangular boundary conditions

net charge:   0.00000000

component 0 (CO2) lambda:  0 occupancy:  1 (1.000000)
    net charge:   0.00000000 [e]

Amount of molecules per component :
-------------------------------------------------------------------------------
Component 0 (CO2)
    molecules:      1.500000e+02 molecules  (1.500000e+02 +/- 0.000000e+00)
    number density: 1.530462e-02 molec./A^3 (1.464315e-02 +/- 0.000000e+00)
    density:        1.118182e+03 kg/m^3     (1.069854e+03 +/- 0.000000e+00)

Average pressure tensor: 
-------------------------------------------------------------------------------
 1.1217e+02 -2.2543e+01  1.4407e+01 +/- 0.0000e+00 0.0000e+00 0.0000e+00 [bar]
-2.2543e+01  4.3623e+01 -5.1784e+01 +/- 0.0000e+00 0.0000e+00 0.0000e+00 [bar]
 1.4407e+01 -5.1784e+01  2.8637e+02 +/- 0.0000e+00 0.0000e+00 0.0000e+00 [bar]
Ideal-gas pressure:   5.054268e+02 +/ 0.000000e+00 [bar]
Excess pressure:     -3.580396e+02 +/ 0.000000e+00 [bar]
Pressure:             1.473872e+02 +/ 0.000000e+00 [bar]

Total potential energy/kʙ  -2.427537e+05 (-2.300558e+05 +/- 0.000000e+00) [K]
-------------------------------------------------------------------------------
ExternalField-molecule
    Van der Waals/kʙ        0.000000e+00 ( 0.000000e+00 +/- 0.000000e+00) [K]
Framework-molecule
    Van der Waals/kʙ        0.000000e+00 ( 0.000000e+00 +/- 0.000000e+00) [K]
    Van der Waals (Tail)/kʙ 0.000000e+00 ( 0.000000e+00 +/- 0.000000e+00) [K]
    Coulombic Real/kʙ       0.000000e+00 ( 0.000000e+00 +/- 0.000000e+00) [K]
    Coulombic Fourier/kʙ    0.000000e+00 ( 0.000000e+00 +/- 0.000000e+00) [K]
Molecule-molecule
    Van der Waals/kʙ       -1.723375e+05 (-1.646120e+05 +/- 0.000000e+00) [K]
    Van der Waals (Tail)/kʙ-7.365842e+03 (-7.055560e+03 +/- 0.000000e+00) [K]
    Coulombic Real/kʙ      -5.073179e+04 (-4.679741e+04 +/- 0.000000e+00) [K]
    Coulombic Fourier/kʙ   -1.231855e+04 (-1.159083e+04 +/- 0.000000e+00) [K]
    Molecule Intra/kʙ       0.000000e+00 ( 0.000000e+00 +/- 0.000000e+00) [K]

Current cycle: 1000 out of 5000
===============================================================================

Box:      21.41027   0.00000   0.00000  Average:  21.69578   0.00000   0.00000
           0.00000  21.41027   0.00000             0.00000  21.69578   0.00000
           0.00000   0.00000  21.41027             0.00000   0.00000  21.69578
Lengths:  21.41027  21.41027  21.41027  Average:  21.69578  21.69578  21.69578
Angles:   90.00000  90.00000  90.00000  Average:  90.00000  90.00000  90.00000
Rectangular boundary conditions

net charge:   0.00000000

component 0 (CO2) lambda:  0 occupancy:  1 (1.000000)
    net charge:   0.00000000 [e]

Amount of molecules per component :
-------------------------------------------------------------------------------
Component 0 (CO2)
    molecules:      1.500000e+02 molecules  (1.500000e+02 +/- 0.000000e+00)
    number density: 1.528356e-02 molec./A^3 (1.470071e-02 +/- 0.000000e+00)
    density:        1.116643e+03 kg/m^3     (1.074059e+03 +/- 0.000000e+00)

Average pressure tensor: 
-------------------------------------------------------------------------------
 1.0148e+02 -6.3555e+00  3.2627e+01 +/- 0.0000e+00 0.0000e+00 0.0000e+00 [bar]
-6.3555e+00  4.7476e+01 -3.7853e+01 +/- 0.0000e+00 0.0000e+00 0.0000e+00 [bar]
 3.2627e+01 -3.7853e+01  3.0713e+02 +/- 0.0000e+00 0.0000e+00 0.0000e+00 [bar]
Ideal-gas pressure:   5.074136e+02 +/ 0.000000e+00 [bar]
Excess pressure:     -3.553880e+02 +/ 0.000000e+00 [bar]
Pressure:             1.520256e+02 +/ 0.000000e+00 [bar]

Total potential energy/kʙ  -2.453510e+05 (-2.310628e+05 +/- 0.000000e+00) [K]
-------------------------------------------------------------------------------
ExternalField-molecule
    Van der Waals/kʙ        0.000000e+00 ( 0.000000e+00 +/- 0.000000e+00) [K]
Framework-molecule
    Van der Waals/kʙ        0.000000e+00 ( 0.000000e+00 +/- 0.000000e+00) [K]
    Van der Waals (Tail)/kʙ 0.000000e+00 ( 0.000000e+00 +/- 0.000000e+00) [K]
    Coulombic Real/kʙ       0.000000e+00 ( 0.000000e+00 +/- 0.000000e+00) [K]
    Coulombic Fourier/kʙ    0.000000e+00 ( 0.000000e+00 +/- 0.000000e+00) [K]
Molecule-molecule
    Van der Waals/kʙ       -1.732059e+05 (-1.652809e+05 +/- 0.000000e+00) [K]
    Van der Waals (Tail)/kʙ-7.355708e+03 (-7.083076e+03 +/- 0.000000e+00) [K]
    Coulombic Real/kʙ      -5.245004e+04 (-4.706989e+04 +/- 0.000000e+00) [K]
    Coulombic Fourier/kʙ   -1.233940e+04 (-1.162889e+04 +/- 0.000000e+00) [K]
    Molecule Intra/kʙ       0.000000e+00 ( 0.000000e+00 +/- 0.000000e+00) [K]

Current cycle: 1100 out of 5000
===============================================================================

Box:      21.54474   0.00000   0.00000  Average:  21.67160   0.00000   0.00000
           0.00000  21.54474   0.00000             0.00000  21.67160   0.00000
           0.00000   0.00000  21.54474             0.00000   0.00000  21.67160
Lengths:  21.54474  21.54474  21.54474  Average:  21.67160  21.67160  21.67160
Angles:   90.00000  90.00000  90.00000  Average:  90.00000  90.00000  90.00000
Rectangular boundary conditions

net charge:   0.00000000

component 0 (CO2) lambda:  0 occupancy:  1 (1.000000)
    net charge:   0.00000000 [e]

Amount of molecules per component :
-------------------------------------------------------------------------------
Component 0 (CO2)
    molecules:      1.500000e+02 molecules  (1.500000e+02 +/- 0.000000e+00)
    number density: 1.499917e-02 molec./A^3 (1.475001e-02 +/- 0.000000e+00)
    density:        1.095865e+03 kg/m^3     (1.077661e+03 +/- 0.000000e+00)

Average pressure tensor: 
-------------------------------------------------------------------------------
 8.5432e+01 -8.7617e+00  3.5437e+01 +/- 0.0000e+00 0.0000e+00 0.0000e+00 [bar]
-8.7617e+00  5.6802e+01 -3.0333e+01 +/- 0.0000e+00 0.0000e+00 0.0000e+00 [bar]
 3.5437e+01 -3.0333e+01  2.8901e+02 +/- 0.0000e+00 0.0000e+00 0.0000e+00 [bar]
Ideal-gas pressure:   5.091151e+02 +/ 0.000000e+00 [bar]
Excess pressure:     -3.653673e+02 +/ 0.000000e+00 [bar]
Pressure:             1.437479e+02 +/ 0.000000e+00 [bar]

Total potential energy/kʙ  -2.402523e+05 (-2.320890e+05 +/- 0.000000e+00) [K]
-------------------------------------------------------------------------------
ExternalField-molecule
    Van der Waals/kʙ        0.000000e+00 ( 0.000000e+00 +/- 0.000000e+00) [K]
Framework-molecule
    Van der Waals/kʙ        0.000000e+00 ( 0.000000e+00 +/- 0.000000e+00) [K]
    Van der Waals (Tail)/kʙ 0.000000e+00 ( 0.000000e+00 +/- 0.000000e+00) [K]
    Coulombic Real/kʙ       0.000000e+00 ( 0.000000e+00 +/- 0.000000e+00) [K]
    Coulombic Fourier/kʙ    0.000000e+00 ( 0.000000e+00 +/- 0.000000e+00) [K]
Molecule-molecule
    Van der Waals/kʙ       -1.698303e+05 (-1.659689e+05 +/- 0.000000e+00) [K]
    Van der Waals (Tail)/kʙ-7.218836e+03 (-7.105158e+03 +/- 0.000000e+00) [K]
    Coulombic Real/kʙ      -5.149780e+04 (-4.731822e+04 +/- 0.000000e+00) [K]
    Coulombic Fourier/kʙ   -1.170537e+04 (-1.169675e+04 +/- 0.000000e+00) [K]
    Molecule Intra/kʙ       0.000000e+00 ( 0.000000e+00 +/- 0.000000e+00) [K]

Current cycle: 1200 out of 5000
===============================================================================

Box:      21.65163   0.00000   0.00000  Average:  21.67353   0.00000   0.00000
           0.00000  21.65163   0.00000             0.00000  21.67353   0.00000
           0.00000   0.00000  21.65163             0.00000   0.00000  21.67353
Lengths:  21.65163  21.65163  21.65163  Average:  21.67353  21.67353  21.67353
Angles:   90.00000  90.00000  90.00000  Average:  90.00000  90.00000  90.00000
Rectangular boundary conditions

net charge:   0.00000000

component 0 (CO2) lambda:  0 occupancy:  1 (1.000000)
    net charge:   0.00000000 [e]

Amount of molecules per component :
-------------------------------------------------------------------------------
Component 0 (CO2)
    molecules:      1.500000e+02 molecules  (1.500000e+02 +/- 0.000000e+00)
    number density: 1.477814e-02 molec./A^3 (1.474521e-02 +/- 0.000000e+00)
    density:        1.079716e+03 kg/m^3     (1.077310e+03 +/- 0.000000e+00)

Average pressure tensor: 
-------------------------------------------------------------------------------
 7.4021e+01 -1.9052e+01  4.6078e+01 +/- 0.0000e+00 0.0000e+00 0.0000e+00 [bar]
-1.9052e+01  6.3169e+01 -1.5678e+01 +/- 0.0000e+00 0.0000e+00 0.0000e+00 [bar]
 4.6078e+01 -1.5678e+01  2.7109e+02 +/- 0.0000e+00 0.0000e+00 0.0000e+00 [bar]
Ideal-gas pressure:   5.089495e+02 +/ 0.000000e+00 [bar]
Excess pressure:     -3.728549e+02 +/ 0.000000e+00 [bar]
Pressure:             1.360945e+02 +/ 0.000000e+00 [bar]

Total potential energy/kʙ  -2.364103e+05 (-2.324708e+05 +/- 0.000000e+00) [K]
-------------------------------------------------------------------------------
ExternalField-molecule
    Van der Waals/kʙ        0.000000e+00 ( 0.000000e+00 +/- 0.000000e+00) [K]
Framework-molecule
    Van der Waals/kʙ        0.000000e+00 ( 0.000000e+00 +/- 0.000000e+00) [K]
    Van der Waals (Tail)/kʙ 0.000000e+00 ( 0.000000e+00 +/- 0.000000e+00) [K]
    Coulombic Real/kʙ       0.000000e+00 ( 0.000000e+00 +/- 0.000000e+00) [K]
    Coulombic Fourier/kʙ    0.000000e+00 ( 0.000000e+00 +/- 0.000000e+00) [K]
Molecule-molecule
    Van der Waals/kʙ       -1.661971e+05 (-1.660121e+05 +/- 0.000000e+00) [K]
    Van der Waals (Tail)/kʙ-7.112458e+03 (-7.102043e+03 +/- 0.000000e+00) [K]
    Coulombic Real/kʙ      -5.170818e+04 (-4.764152e+04 +/- 0.000000e+00) [K]
    Coulombic Fourier/kʙ   -1.139256e+04 (-1.171512e+04 +/- 0.000000e+00) [K]
    Molecule Intra/kʙ       0.000000e+00 ( 0.000000e+00 +/- 0.000000e+00) [K]

Current cycle: 1300 out of 5000
===============================================================================

Box:      21.90165   0.00000   0.00000  Average:  21.67739   0.00000   0.00000
           0.00000  21.90165   0.00000             0.00000  21.67739   0.00000
           0.00000   0.00000  21.90165             0.00000   0.00000  21.67739
Lengths:  21.90165  21.90165  21.90165  Average:  21.67739  21.67739  21.67739
Angles:   90.00000  90.00000  90.00000  Average:  90.00000  90.00000  90.00000
Rectangular boundary conditions

net charge:   0.00000000

component 0 (CO2) lambda:  0 occupancy:  1 (1.000000)
    net charge:   0.00000000 [e]

Amount of molecules per component :
-------------------------------------------------------------------------------
Component 0 (CO2)
    molecules:      1.500000e+02 molecules  (1.500000e+02 +/- 0.000000e+00)
    number density: 1.427778e-02 molec./A^3 (1.473658e-02 +/- 0.000000e+00)
    density:        1.043159e+03 kg/m^3     (1.076679e+03 +/- 0.000000e+00)

Average pressure tensor: 
-------------------------------------------------------------------------------
 9.2470e+01 -2.6668e+01  4.9740e+01 +/- 0.0000e+00 0.0000e+00 0.0000e+00 [bar]
-2.6668e+01  8.1542e+01 -2.7632e+00 +/- 0.0000e+00 0.0000e+00 0.0000e+00 [bar]
 4.9740e+01 -2.7632e+00  2.7527e+02 +/- 0.0000e+00 0.0000e+00 0.0000e+00 [bar]
Ideal-gas pressure:   5.086514e+02 +/ 0.000000e+00 [bar]
Excess pressure:     -3.588903e+02 +/ 0.000000e+00 [bar]
Pressure:             1.497612e+02 +/ 0.000000e+00 [bar]

Total potential energy/kʙ  -2.263979e+05 (-2.324899e+05 +/- 0.000000e+00) [K]
-------------------------------------------------------------------------------
ExternalField-molecule
    Van der Waals/kʙ        0.000000e+00 ( 0.000000e+00 +/- 0.000000e+00) [K]
Framework-molecule
    Van der Waals/kʙ        0.000000e+00 ( 0.000000e+00 +/- 0.000000e+00) [K]
    Van der Waals (Tail)/kʙ 0.000000e+00 ( 0.000000e+00 +/- 0.000000e+00) [K]
    Coulombic Real/kʙ       0.000000e+00 ( 0.000000e+00 +/- 0.000000e+00) [K]
    Coulombic Fourier/kʙ    0.000000e+00 ( 0.000000e+00 +/- 0.000000e+00) [K]
Molecule-molecule
    Van der Waals/kʙ       -1.626736e+05 (-1.658781e+05 +/- 0.000000e+00) [K]
    Van der Waals (Tail)/kʙ-6.871645e+03 (-7.096711e+03 +/- 0.000000e+00) [K]
    Coulombic Real/kʙ      -4.499826e+04 (-4.782485e+04 +/- 0.000000e+00) [K]
    Coulombic Fourier/kʙ   -1.185436e+04 (-1.169025e+04 +/- 0.000000e+00) [K]
    Molecule Intra/kʙ       0.000000e+00 ( 0.000000e+00 +/- 0.000000e+00) [K]

Current cycle: 1400 out of 5000
===============================================================================

Box:      21.60748   0.00000   0.00000  Average:  21.68313   0.00000   0.00000
           0.00000  21.60748   0.00000             0.00000  21.68313   0.00000
           0.00000   0.00000  21.60748             0.00000   0.00000  21.68313
Lengths:  21.60748  21.60748  21.60748  Average:  21.68313  21.68313  21.68313
Angles:   90.00000  90.00000  90.00000  Average:  90.00000  90.00000  90.00000
Rectangular boundary conditions

net charge:   0.00000000

component 0 (CO2) lambda:  0 occupancy:  1 (1.000000)
    net charge:   0.00000000 [e]

Amount of molecules per component :
-------------------------------------------------------------------------------
Component 0 (CO2)
    molecules:      1.500000e+02 molecules  (1.500000e+02 +/- 0.000000e+00)
    number density: 1.486891e-02 molec./A^3 (1.472437e-02 +/- 0.000000e+00)
    density:        1.086348e+03 kg/m^3     (1.075788e+03 +/- 0.000000e+00)

Average pressure tensor: 
-------------------------------------------------------------------------------
 7.8481e+01 -1.8806e+01  4.8850e+01 +/- 0.0000e+00 0.0000e+00 0.0000e+00 [bar]
-1.8806e+01  1.0341e+02  4.1188e+00 +/- 0.0000e+00 0.0000e+00 0.0000e+00 [bar]
 4.8850e+01  4.1188e+00  2.6911e+02 +/- 0.0000e+00 0.0000e+00 0.0000e+00 [bar]
Ideal-gas pressure:   5.082303e+02 +/ 0.000000e+00 [bar]
Excess pressure:     -3.578974e+02 +/ 0.000000e+00 [bar]
Pressure:             1.503329e+02 +/ 0.000000e+00 [bar]

Total potential energy/kʙ  -2.358547e+05 (-2.322165e+05 +/- 0.000000e+00) [K]
-------------------------------------------------------------------------------
ExternalField-molecule
    Van der Waals/kʙ        0.000000e+00 ( 0.000000e+00 +/- 0.000000e+00) [K]
Framework-molecule
    Van der Waals/kʙ        0.000000e+00 ( 0.000000e+00 +/- 0.000000e+00) [K]
    Van der Waals (Tail)/kʙ 0.000000e+00 ( 0.000000e+00 +/- 0.000000e+00) [K]
    Coulombic Real/kʙ       0.000000e+00 ( 0.000000e+00 +/- 0.000000e+00) [K]
    Coulombic Fourier/kʙ    0.000000e+00 ( 0.000000e+00 +/- 0.000000e+00) [K]
Molecule-molecule
    Van der Waals/kʙ       -1.708670e+05 (-1.656724e+05 +/- 0.000000e+00) [K]
    Van der Waals (Tail)/kʙ-7.156145e+03 (-7.091824e+03 +/- 0.000000e+00) [K]
    Coulombic Real/kʙ      -4.611532e+04 (-4.777218e+04 +/- 0.000000e+00) [K]
    Coulombic Fourier/kʙ   -1.171621e+04 (-1.168005e+04 +/- 0.000000e+00) [K]
    Molecule Intra/kʙ       0.000000e+00 ( 0.000000e+00 +/- 0.000000e+00) [K]

Current cycle: 1500 out of 5000
===============================================================================

Box:      21.45952   0.00000   0.00000  Average:  21.66777   0.00000   0.00000
           0.00000  21.45952   0.00000             0.00000  21.66777   0.00000
           0.00000   0.00000  21.45952             0.00000   0.00000  21.66777
Lengths:  21.45952  21.45952  21.45952  Average:  21.66777  21.66777  21.66777
Angles:   90.00000  90.00000  90.00000  Average:  90.00000  90.00000  90.00000
Rectangular boundary conditions

net charge:   0.00000000

component 0 (CO2) lambda:  0 occupancy:  1 (1.000000)
    net charge:   0.00000000 [e]

Amount of molecules per component :
-------------------------------------------------------------------------------
Component 0 (CO2)
    molecules:      1.500000e+02 molecules  (1.500000e+02 +/- 0.000000e+00)
    number density: 1.517858e-02 molec./A^3 (1.475573e-02 +/- 0.000000e+00)
    density:        1.108973e+03 kg/m^3     (1.078079e+03 +/- 0.000000e+00)

Average pressure tensor: 
-------------------------------------------------------------------------------
 8.6300e+01 -1.0610e+01  3.9855e+01 +/- 0.0000e+00 0.0000e+00 0.0000e+00 [bar]
-1.0610e+01  1.2060e+02  4.9751e+00 +/- 0.0000e+00 0.0000e+00 0.0000e+00 [bar]
 3.9855e+01  4.9751e+00  2.6598e+02 +/- 0.0000e+00 0.0000e+00 0.0000e+00 [bar]
Ideal-gas pressure:   5.093128e+02 +/ 0.000000e+00 [bar]
Excess pressure:     -3.516855e+02 +/ 0.000000e+00 [bar]
Pressure:             1.576272e+02 +/ 0.000000e+00 [bar]

Total potential energy/kʙ  -2.384523e+05 (-2.324731e+05 +/- 0.000000e+00) [K]
-------------------------------------------------------------------------------
ExternalField-molecule
    Van der Waals/kʙ        0.000000e+00 ( 0.000000e+00 +/- 0.000000e+00) [K]
Framework-molecule
    Van der Waals/kʙ        0.000000e+00 ( 0.000000e+00 +/- 0.000000e+00) [K]
    Van der Waals (Tail)/kʙ 0.000000e+00 ( 0.000000e+00 +/- 0.000000e+00) [K]
    Coulombic Real/kʙ       0.000000e+00 ( 0.000000e+00 +/- 0.000000e+00) [K]
    Coulombic Fourier/kʙ    0.000000e+00 ( 0.000000e+00 +/- 0.000000e+00) [K]
Molecule-molecule
    Van der Waals/kʙ       -1.716414e+05 (-1.659877e+05 +/- 0.000000e+00) [K]
    Van der Waals (Tail)/kʙ-7.305185e+03 (-7.106919e+03 +/- 0.000000e+00) [K]
    Coulombic Real/kʙ      -4.796341e+04 (-4.770167e+04 +/- 0.000000e+00) [K]
    Coulombic Fourier/kʙ   -1.154227e+04 (-1.167686e+04 +/- 0.000000e+00) [K]
    Molecule Intra/kʙ       0.000000e+00 ( 0.000000e+00 +/- 0.000000e+00) [K]

Current cycle: 1600 out of 5000
===============================================================================

Box:      21.51584   0.00000   0.00000  Average:  21.65637   0.00000   0.00000
           0.00000  21.51584   0.00000             0.00000  21.65637   0.00000
           0.00000   0.00000  21.51584             0.00000   0.00000  21.65637
Lengths:  21.51584  21.51584  21.51584  Average:  21.65637  21.65637  21.65637
Angles:   90.00000  90.00000  90.00000  Average:  90.00000  90.00000  90.00000
Rectangular boundary conditions

net charge:   0.00000000

component 0 (CO2) lambda:  0 occupancy:  1 (1.000000)
    net charge:   0.00000000 [e]

Amount of molecules per component :
-------------------------------------------------------------------------------
Component 0 (CO2)
    molecules:      1.500000e+02 molecules  (1.500000e+02 +/- 0.000000e+00)
    number density: 1.505971e-02 molec./A^3 (1.477887e-02 +/- 0.000000e+00)
    density:        1.100288e+03 kg/m^3     (1.079769e+03 +/- 0.000000e+00)

Average pressure tensor: 
-------------------------------------------------------------------------------
 9.1752e+01 -5.7025e+00  2.7207e+01 +/- 0.0000e+00 0.0000e+00 0.0000e+00 [bar]
-5.7025e+00  1.3355e+02  1.0474e+01 +/- 0.0000e+00 0.0000e+00 0.0000e+00 [bar]
 2.7207e+01  1.0474e+01  2.6183e+02 +/- 0.0000e+00 0.0000e+00 0.0000e+00 [bar]
Ideal-gas pressure:   5.101112e+02 +/ 0.000000e+00 [bar]
Excess pressure:     -3.477328e+02 +/ 0.000000e+00 [bar]
Pressure:             1.623784e+02 +/ 0.000000e+00 [bar]

Total potential energy/kʙ  -2.352281e+05 (-2.327712e+05 +/- 0.000000e+00) [K]
-------------------------------------------------------------------------------
ExternalField-molecule
    Van der Waals/kʙ        0.000000e+00 ( 0.000000e+00 +/- 0.000000e+00) [K]
Framework-molecule
    Van der Waals/kʙ        0.000000e+00 ( 0.000000e+00 +/- 0.000000e+00) [K]
    Van der Waals (Tail)/kʙ 0.000000e+00 ( 0.000000e+00 +/- 0.000000e+00) [K]
    Coulombic Real/kʙ       0.000000e+00 ( 0.000000e+00 +/- 0.000000e+00) [K]
    Coulombic Fourier/kʙ    0.000000e+00 ( 0.000000e+00 +/- 0.000000e+00) [K]
Molecule-molecule
    Van der Waals/kʙ       -1.663989e+05 (-1.661513e+05 +/- 0.000000e+00) [K]
    Van der Waals (Tail)/kʙ-7.247971e+03 (-7.117666e+03 +/- 0.000000e+00) [K]
    Coulombic Real/kʙ      -4.927654e+04 (-4.781622e+04 +/- 0.000000e+00) [K]
    Coulombic Fourier/kʙ   -1.230467e+04 (-1.168599e+04 +/- 0.000000e+00) [K]
    Molecule Intra/kʙ       0.000000e+00 ( 0.000000e+00 +/- 0.000000e+00) [K]

Current cycle: 1700 out of 5000
===============================================================================

Box:      21.32805   0.00000   0.00000  Average:  21.64549   0.00000   0.00000
           0.00000  21.32805   0.00000             0.00000  21.64549   0.00000
           0.00000   0.00000  21.32805             0.00000   0.00000  21.64549
Lengths:  21.32805  21.32805  21.32805  Average:  21.64549  21.64549  21.64549
Angles:   90.00000  90.00000  90.00000  Average:  90.00000  90.00000  90.00000
Rectangular boundary conditions

net charge:   0.00000000

component 0 (CO2) lambda:  0 occupancy:  1 (1.000000)
    net charge:   0.00000000 [e]

Amount of molecules per component :
-------------------------------------------------------------------------------
Component 0 (CO2)
    molecules:      1.500000e+02 molecules  (1.500000e+02 +/- 0.000000e+00)
    number density: 1.546101e-02 molec./A^3 (1.480113e-02 +/- 0.000000e+00)
    density:        1.129608e+03 kg/m^3     (1.081396e+03 +/- 0.000000e+00)

Average pressure tensor: 
-------------------------------------------------------------------------------
 8.1853e+01 -4.1190e+00  1.6585e+01 +/- 0.0000e+00 0.0000e+00 0.0000e+00 [bar]
-4.1190e+00  1.3436e+02  2.5306e+01 +/- 0.0000e+00 0.0000e+00 0.0000e+00 [bar]
 1.6585e+01  2.5306e+01  2.4719e+02 +/- 0.0000e+00 0.0000e+00 0.0000e+00 [bar]
Ideal-gas pressure:   5.108796e+02 +/ 0.000000e+00 [bar]
Excess pressure:     -3.564109e+02 +/ 0.000000e+00 [bar]
Pressure:             1.544687e+02 +/ 0.000000e+00 [bar]

Total potential energy/kʙ  -2.414185e+05 (-2.332412e+05 +/- 0.000000e+00) [K]
-------------------------------------------------------------------------------
ExternalField-molecule
    Van der Waals/kʙ        0.000000e+00 ( 0.000000e+00 +/- 0.000000e+00) [K]
Framework-molecule
    Van der Waals/kʙ        0.000000e+00 ( 0.000000e+00 +/- 0.000000e+00) [K]
    Van der Waals (Tail)/kʙ 0.000000e+00 ( 0.000000e+00 +/- 0.000000e+00) [K]
    Coulombic Real/kʙ       0.000000e+00 ( 0.000000e+00 +/- 0.000000e+00) [K]
    Coulombic Fourier/kʙ    0.000000e+00 ( 0.000000e+00 +/- 0.000000e+00) [K]
Molecule-molecule
    Van der Waals/kʙ       -1.697111e+05 (-1.664800e+05 +/- 0.000000e+00) [K]
    Van der Waals (Tail)/kʙ-7.441111e+03 (-7.127899e+03 +/- 0.000000e+00) [K]
    Coulombic Real/kʙ      -5.217434e+04 (-4.793157e+04 +/- 0.000000e+00) [K]
    Coulombic Fourier/kʙ   -1.209191e+04 (-1.170175e+04 +/- 0.000000e+00) [K]
    Molecule Intra/kʙ       0.000000e+00 ( 0.000000e+00 +/- 0.000000e+00) [K]

Current cycle: 1800 out of 5000
===============================================================================

Box:      21.34908   0.00000   0.00000  Average:  21.63285   0.00000   0.00000
           0.00000  21.34908   0.00000             0.00000  21.63285   0.00000
           0.00000   0.00000  21.34908             0.00000   0.00000  21.63285
Lengths:  21.34908  21.34908  21.34908  Average:  21.63285  21.63285  21.63285
Angles:   90.00000  90.00000  90.00000  Average:  90.00000  90.00000  90.00000
Rectangular boundary conditions

net charge:   0.00000000

component 0 (CO2) lambda:  0 occupancy:  1 (1.000000)
    net charge:   0.00000000 [e]

Amount of molecules per component :
-------------------------------------------------------------------------------
Component 0 (CO2)
    molecules:      1.500000e+02 molecules  (1.500000e+02 +/- 0.000000e+00)
    number density: 1.541536e-02 molec./A^3 (1.482712e-02 +/- 0.000000e+00)
    density:        1.126272e+03 kg/m^3     (1.083294e+03 +/- 0.000000e+00)

Average pressure tensor: 
-------------------------------------------------------------------------------
 8.2950e+01  1.1808e+00  1.1732e+01 +/- 0.0000e+00 0.0000e+00 0.0000e+00 [bar]
 1.1808e+00  1.4951e+02  3.6064e+01 +/- 0.0000e+00 0.0000e+00 0.0000e+00 [bar]
 1.1732e+01  3.6064e+01  2.3941e+02 +/- 0.0000e+00 0.0000e+00 0.0000e+00 [bar]
Ideal-gas pressure:   5.117765e+02 +/ 0.000000e+00 [bar]
Excess pressure:     -3.544857e+02 +/ 0.000000e+00 [bar]
Pressure:             1.572908e+02 +/ 0.000000e+00 [bar]

Total potential energy/kʙ  -2.447585e+05 (-2.337046e+05 +/- 0.000000e+00) [K]
-------------------------------------------------------------------------------
ExternalField-molecule
    Van der Waals/kʙ        0.000000e+00 ( 0.000000e+00 +/- 0.000000e+00) [K]
Framework-molecule
    Van der Waals/kʙ        0.000000e+00 ( 0.000000e+00 +/- 0.000000e+00) [K]
    Van der Waals (Tail)/kʙ 0.000000e+00 ( 0.000000e+00 +/- 0.000000e+00) [K]
    Coulombic Real/kʙ       0.000000e+00 ( 0.000000e+00 +/- 0.000000e+00) [K]
    Coulombic Fourier/kʙ    0.000000e+00 ( 0.000000e+00 +/- 0.000000e+00) [K]
Molecule-molecule
    Van der Waals/kʙ       -1.758181e+05 (-1.667985e+05 +/- 0.000000e+00) [K]
    Van der Waals (Tail)/kʙ-7.419140e+03 (-7.139332e+03 +/- 0.000000e+00) [K]
    Coulombic Real/kʙ      -4.983139e+04 (-4.806042e+04 +/- 0.000000e+00) [K]
    Coulombic Fourier/kʙ   -1.168988e+04 (-1.170633e+04 +/- 0.000000e+00) [K]
    Molecule Intra/kʙ       0.000000e+00 ( 0.000000e+00 +/- 0.000000e+00) [K]

Current cycle: 1900 out of 5000
===============================================================================

Box:      21.58956   0.00000   0.00000  Average:  21.61967   0.00000   0.00000
           0.00000  21.58956   0.00000             0.00000  21.61967   0.00000
           0.00000   0.00000  21.58956             0.00000   0.00000  21.61967
Lengths:  21.58956  21.58956  21.58956  Average:  21.61967  21.61967  21.61967
Angles:   90.00000  90.00000  90.00000  Average:  90.00000  90.00000  90.00000
Rectangular boundary conditions

net charge:   0.00000000

component 0 (CO2) lambda:  0 occupancy:  1 (1.000000)
    net charge:   0.00000000 [e]

Amount of molecules per component :
-------------------------------------------------------------------------------
Component 0 (CO2)
    molecules:      1.500000e+02 molecules  (1.500000e+02 +/- 0.000000e+00)
    number density: 1.490595e-02 molec./A^3 (1.485436e-02 +/- 0.000000e+00)
    density:        1.089054e+03 kg/m^3     (1.085285e+03 +/- 0.000000e+00)

Average pressure tensor: 
-------------------------------------------------------------------------------
 1.0051e+02  9.8598e+00  8.3464e+00 +/- 0.0000e+00 0.0000e+00 0.0000e+00 [bar]
 9.8598e+00  1.5367e+02  4.3265e+01 +/- 0.0000e+00 0.0000e+00 0.0000e+00 [bar]
 8.3464e+00  4.3265e+01  2.2692e+02 +/- 0.0000e+00 0.0000e+00 0.0000e+00 [bar]
Ideal-gas pressure:   5.127169e+02 +/ 0.000000e+00 [bar]
Excess pressure:     -3.523530e+02 +/ 0.000000e+00 [bar]
Pressure:             1.603638e+02 +/ 0.000000e+00 [bar]

Total potential energy/kʙ  -2.376202e+05 (-2.341003e+05 +/- 0.000000e+00) [K]
-------------------------------------------------------------------------------
ExternalField-molecule
    Van der Waals/kʙ        0.000000e+00 ( 0.000000e+00 +/- 0.000000e+00) [K]
Framework-molecule
    Van der Waals/kʙ        0.000000e+00 ( 0.000000e+00 +/- 0.000000e+00) [K]
    Van der Waals (Tail)/kʙ 0.000000e+00 ( 0.000000e+00 +/- 0.000000e+00) [K]
    Coulombic Real/kʙ       0.000000e+00 ( 0.000000e+00 +/- 0.000000e+00) [K]
    Coulombic Fourier/kʙ    0.000000e+00 ( 0.000000e+00 +/- 0.000000e+00) [K]
Molecule-molecule
    Van der Waals/kʙ       -1.688788e+05 (-1.670764e+05 +/- 0.000000e+00) [K]
    Van der Waals (Tail)/kʙ-7.173971e+03 (-7.151457e+03 +/- 0.000000e+00) [K]
    Coulombic Real/kʙ      -4.969011e+04 (-4.815463e+04 +/- 0.000000e+00) [K]
    Coulombic Fourier/kʙ   -1.187730e+04 (-1.171784e+04 +/- 0.000000e+00) [K]
    Molecule Intra/kʙ       0.000000e+00 ( 0.000000e+00 +/- 0.000000e+00) [K]

Current cycle: 2000 out of 5000
===============================================================================

Box:      21.45591   0.00000   0.00000  Average:  21.61344   0.00000   0.00000
           0.00000  21.45591   0.00000             0.00000  21.61344   0.00000
           0.00000   0.00000  21.45591             0.00000   0.00000  21.61344
Lengths:  21.45591  21.45591  21.45591  Average:  21.61344  21.61344  21.61344
Angles:   90.00000  90.00000  90.00000  Average:  90.00000  90.00000  90.00000
Rectangular boundary conditions

net charge:   0.00000000

component 0 (CO2) lambda:  0 occupancy:  1 (1.000000)
    net charge:   0.00000000 [e]

Amount of molecules per component :
-------------------------------------------------------------------------------
Component 0 (CO2)
    molecules:      1.500000e+02 molecules  (1.500000e+02 +/- 0.000000e+00)
    number density: 1.518625e-02 molec./A^3 (1.486688e-02 +/- 0.000000e+00)
    density:        1.109533e+03 kg/m^3     (1.086199e+03 +/- 0.000000e+00)

Average pressure tensor: 
-------------------------------------------------------------------------------
 1.0944e+02  1.8085e+01  4.9342e+00 +/- 0.0000e+00 0.0000e+00 0.0000e+00 [bar]
 1.8085e+01  1.6504e+02  4.1621e+01 +/- 0.0000e+00 0.0000e+00 0.0000e+00 [bar]
 4.9342e+00  4.1621e+01  2.3094e+02 +/- 0.0000e+00 0.0000e+00 0.0000e+00 [bar]
Ideal-gas pressure:   5.131489e+02 +/ 0.000000e+00 [bar]
Excess pressure:     -3.446767e+02 +/ 0.000000e+00 [bar]
Pressure:             1.684722e+02 +/ 0.000000e+00 [bar]

Total potential energy/kʙ  -2.429087e+05 (-2.344314e+05 +/- 0.000000e+00) [K]
-------------------------------------------------------------------------------
ExternalField-molecule
    Van der Waals/kʙ        0.000000e+00 ( 0.000000e+00 +/- 0.000000e+00) [K]
Framework-molecule
    Van der Waals/kʙ        0.000000e+00 ( 0.000000e+00 +/- 0.000000e+00) [K]
    Van der Waals (Tail)/kʙ 0.000000e+00 ( 0.000000e+00 +/- 0.000000e+00) [K]
    Coulombic Real/kʙ       0.000000e+00 ( 0.000000e+00 +/- 0.000000e+00) [K]
    Coulombic Fourier/kʙ    0.000000e+00 ( 0.000000e+00 +/- 0.000000e+00) [K]
Molecule-molecule
    Van der Waals/kʙ       -1.720306e+05 (-1.671755e+05 +/- 0.000000e+00) [K]
    Van der Waals (Tail)/kʙ-7.308873e+03 (-7.158916e+03 +/- 0.000000e+00) [K]
    Coulombic Real/kʙ      -5.174080e+04 (-4.837799e+04 +/- 0.000000e+00) [K]
    Coulombic Fourier/kʙ   -1.182844e+04 (-1.171901e+04 +/- 0.000000e+00) [K]
    Molecule Intra/kʙ       0.000000e+00 ( 0.000000e+00 +/- 0.000000e+00) [K]

Current cycle: 2100 out of 5000
===============================================================================

Box:      21.79293   0.00000   0.00000  Average:  21.60881   0.00000   0.00000
           0.00000  21.79293   0.00000             0.00000  21.60881   0.00000
           0.00000   0.00000  21.79293             0.00000   0.00000  21.60881
Lengths:  21.79293  21.79293  21.79293  Average:  21.60881  21.60881  21.60881
Angles:   90.00000  90.00000  90.00000  Average:  90.00000  90.00000  90.00000
Rectangular boundary conditions

net charge:   0.00000000

component 0 (CO2) lambda:  0 occupancy:  1 (1.000000)
    net charge:   0.00000000 [e]

Amount of molecules per component :
-------------------------------------------------------------------------------
Component 0 (CO2)
    molecules:      1.500000e+02 molecules  (1.500000e+02 +/- 0.000000e+00)
    number density: 1.449253e-02 molec./A^3 (1.487616e-02 +/- 0.000000e+00)
    density:        1.058849e+03 kg/m^3     (1.086877e+03 +/- 0.000000e+00)

Average pressure tensor: 
-------------------------------------------------------------------------------
 1.0611e+02  1.2786e+01 -9.4079e+00 +/- 0.0000e+00 0.0000e+00 0.0000e+00 [bar]
 1.2786e+01  1.3566e+02  4.2822e+01 +/- 0.0000e+00 0.0000e+00 0.0000e+00 [bar]
-9.4079e+00  4.2822e+01  2.2892e+02 +/- 0.0000e+00 0.0000e+00 0.0000e+00 [bar]
Ideal-gas pressure:   5.134693e+02 +/ 0.000000e+00 [bar]
Excess pressure:     -3.565720e+02 +/ 0.000000e+00 [bar]
Pressure:             1.568973e+02 +/ 0.000000e+00 [bar]

Total potential energy/kʙ  -2.275152e+05 (-2.346411e+05 +/- 0.000000e+00) [K]
-------------------------------------------------------------------------------
ExternalField-molecule
    Van der Waals/kʙ        0.000000e+00 ( 0.000000e+00 +/- 0.000000e+00) [K]
Framework-molecule
    Van der Waals/kʙ        0.000000e+00 ( 0.000000e+00 +/- 0.000000e+00) [K]
    Van der Waals (Tail)/kʙ 0.000000e+00 ( 0.000000e+00 +/- 0.000000e+00) [K]
[...]
    Coulombic Fourier/kʙ    0.000000e+00 ( 0.000000e+00 +/- 0.000000e+00) [K]
Molecule-molecule
    Van der Waals/kʙ       -1.655411e+05 (-1.668752e+05 +/- 2.818198e+03) [K]
    Van der Waals (Tail)/kʙ-7.014740e+03 (-7.134697e+03 +/- 1.156613e+02) [K]
    Coulombic Real/kʙ      -4.726623e+04 (-4.890529e+04 +/- 2.220669e+03) [K]
    Coulombic Fourier/kʙ   -1.180648e+04 (-1.184487e+04 +/- 4.031029e+02) [K]
    Molecule Intra/kʙ       0.000000e+00 ( 0.000000e+00 +/- 0.000000e+00) [K]

Current cycle: 4700 out of 5000
===============================================================================

Box:      21.66146   0.00000   0.00000  Average:  21.63114   0.00000   0.00000
           0.00000  21.66146   0.00000             0.00000  21.63114   0.00000
           0.00000   0.00000  21.66146             0.00000   0.00000  21.63114
Lengths:  21.66146  21.66146  21.66146  Average:  21.63114  21.63114  21.63114
Angles:   90.00000  90.00000  90.00000  Average:  90.00000  90.00000  90.00000
Rectangular boundary conditions

net charge:   0.00000000

component 0 (CO2) lambda:  0 occupancy:  1 (1.000000)
    net charge:   0.00000000 [e]

Amount of molecules per component :
-------------------------------------------------------------------------------
Component 0 (CO2)
    molecules:      1.500000e+02 molecules  (1.500000e+02 +/- 0.000000e+00)
    number density: 1.475802e-02 molec./A^3 (1.482856e-02 +/- 2.410085e-04)
    density:        1.078246e+03 kg/m^3     (1.083400e+03 +/- 1.760849e+01)

Average pressure tensor: 
-------------------------------------------------------------------------------
 9.6099e+01  7.4821e+00  3.8218e+00 +/- 6.2899e+01 5.7482e+01 4.9020e+01 [bar]
 7.4821e+00  1.3586e+02  1.7452e+01 +/- 5.7482e+01 1.1187e+02 7.6245e+01 [bar]
 3.8218e+00  1.7452e+01  1.4627e+02 +/- 4.9020e+01 7.6245e+01 1.2843e+02 [bar]
Ideal-gas pressure:   5.118264e+02 +/ 8.318711e+00 [bar]
Excess pressure:     -3.857479e+02 +/ 5.229068e+01 [bar]
Pressure:             1.260785e+02 +/ 5.505315e+01 [bar]

Total potential energy/kʙ  -2.355406e+05 (-2.346988e+05 +/- 5.166093e+03) [K]
-------------------------------------------------------------------------------
ExternalField-molecule
    Van der Waals/kʙ        0.000000e+00 ( 0.000000e+00 +/- 0.000000e+00) [K]
Framework-molecule
    Van der Waals/kʙ        0.000000e+00 ( 0.000000e+00 +/- 0.000000e+00) [K]
    Van der Waals (Tail)/kʙ 0.000000e+00 ( 0.000000e+00 +/- 0.000000e+00) [K]
    Coulombic Real/kʙ       0.000000e+00 ( 0.000000e+00 +/- 0.000000e+00) [K]
    Coulombic Fourier/kʙ    0.000000e+00 ( 0.000000e+00 +/- 0.000000e+00) [K]
Molecule-molecule
    Van der Waals/kʙ       -1.682168e+05 (-1.668562e+05 +/- 2.769516e+03) [K]
    Van der Waals (Tail)/kʙ-7.102775e+03 (-7.134372e+03 +/- 1.144321e+02) [K]
    Coulombic Real/kʙ      -4.841062e+04 (-4.887499e+04 +/- 2.096461e+03) [K]
    Coulombic Fourier/kʙ   -1.181043e+04 (-1.183328e+04 +/- 3.462422e+02) [K]
    Molecule Intra/kʙ       0.000000e+00 ( 0.000000e+00 +/- 0.000000e+00) [K]

Current cycle: 4800 out of 5000
===============================================================================

Box:      21.58644   0.00000   0.00000  Average:  21.63149   0.00000   0.00000
           0.00000  21.58644   0.00000             0.00000  21.63149   0.00000
           0.00000   0.00000  21.58644             0.00000   0.00000  21.63149
Lengths:  21.58644  21.58644  21.58644  Average:  21.63149  21.63149  21.63149
Angles:   90.00000  90.00000  90.00000  Average:  90.00000  90.00000  90.00000
Rectangular boundary conditions

net charge:   0.00000000

component 0 (CO2) lambda:  0 occupancy:  1 (1.000000)
    net charge:   0.00000000 [e]

Amount of molecules per component :
-------------------------------------------------------------------------------
Component 0 (CO2)
    molecules:      1.500000e+02 molecules  (1.500000e+02 +/- 0.000000e+00)
    number density: 1.491242e-02 molec./A^3 (1.482773e-02 +/- 2.387060e-04)
    density:        1.089527e+03 kg/m^3     (1.083339e+03 +/- 1.744027e+01)

Average pressure tensor: 
-------------------------------------------------------------------------------
 9.6120e+01  2.4818e+00  8.2556e-01 +/- 5.6571e+01 6.0908e+01 4.8020e+01 [bar]
 2.4818e+00  1.3068e+02  1.5361e+01 +/- 6.0908e+01 1.1370e+02 7.6465e+01 [bar]
 8.2556e-01  1.5361e+01  1.5059e+02 +/- 4.8020e+01 7.6465e+01 1.2673e+02 [bar]
Ideal-gas pressure:   5.117976e+02 +/ 8.239239e+00 [bar]
Excess pressure:     -3.860006e+02 +/ 5.086138e+01 [bar]
Pressure:             1.257971e+02 +/ 5.395854e+01 [bar]

Total potential energy/kʙ  -2.374362e+05 (-2.347507e+05 +/- 5.157122e+03) [K]
-------------------------------------------------------------------------------
ExternalField-molecule
    Van der Waals/kʙ        0.000000e+00 ( 0.000000e+00 +/- 0.000000e+00) [K]
Framework-molecule
    Van der Waals/kʙ        0.000000e+00 ( 0.000000e+00 +/- 0.000000e+00) [K]
    Van der Waals (Tail)/kʙ 0.000000e+00 ( 0.000000e+00 +/- 0.000000e+00) [K]
    Coulombic Real/kʙ       0.000000e+00 ( 0.000000e+00 +/- 0.000000e+00) [K]
    Coulombic Fourier/kʙ    0.000000e+00 ( 0.000000e+00 +/- 0.000000e+00) [K]
Molecule-molecule
    Van der Waals/kʙ       -1.658065e+05 (-1.668350e+05 +/- 2.738470e+03) [K]
    Van der Waals (Tail)/kʙ-7.177087e+03 (-7.134180e+03 +/- 1.137329e+02) [K]
    Coulombic Real/kʙ      -5.264903e+04 (-4.894317e+04 +/- 2.154292e+03) [K]
    Coulombic Fourier/kʙ   -1.180352e+04 (-1.183833e+04 +/- 3.416700e+02) [K]
    Molecule Intra/kʙ       0.000000e+00 ( 0.000000e+00 +/- 0.000000e+00) [K]

Current cycle: 4900 out of 5000
===============================================================================

Box:      21.64079   0.00000   0.00000  Average:  21.62862   0.00000   0.00000
           0.00000  21.64079   0.00000             0.00000  21.62862   0.00000
           0.00000   0.00000  21.64079             0.00000   0.00000  21.62862
Lengths:  21.64079  21.64079  21.64079  Average:  21.62862  21.62862  21.62862
Angles:   90.00000  90.00000  90.00000  Average:  90.00000  90.00000  90.00000
Rectangular boundary conditions

net charge:   0.00000000

component 0 (CO2) lambda:  0 occupancy:  1 (1.000000)
    net charge:   0.00000000 [e]

Amount of molecules per component :
-------------------------------------------------------------------------------
Component 0 (CO2)
    molecules:      1.500000e+02 molecules  (1.500000e+02 +/- 0.000000e+00)
    number density: 1.480035e-02 molec./A^3 (1.483359e-02 +/- 2.418289e-04)
    density:        1.081339e+03 kg/m^3     (1.083768e+03 +/- 1.766843e+01)

Average pressure tensor: 
-------------------------------------------------------------------------------
 9.6353e+01  4.4241e+00  5.7616e+00 +/- 5.1192e+01 5.8723e+01 4.9964e+01 [bar]
 4.4241e+00  1.3754e+02  1.8388e+01 +/- 5.8723e+01 1.1182e+02 7.6330e+01 [bar]
 5.7616e+00  1.8388e+01  1.6093e+02 +/- 4.9964e+01 7.6330e+01 1.2951e+02 [bar]
Ideal-gas pressure:   5.120001e+02 +/ 8.347029e+00 [bar]
Excess pressure:     -3.803945e+02 +/ 4.329381e+01 [bar]
Pressure:             1.316056e+02 +/ 4.758584e+01 [bar]

Total potential energy/kʙ  -2.312011e+05 (-2.348559e+05 +/- 5.210334e+03) [K]
-------------------------------------------------------------------------------
ExternalField-molecule
    Van der Waals/kʙ        0.000000e+00 ( 0.000000e+00 +/- 0.000000e+00) [K]
Framework-molecule
    Van der Waals/kʙ        0.000000e+00 ( 0.000000e+00 +/- 0.000000e+00) [K]
    Van der Waals (Tail)/kʙ 0.000000e+00 ( 0.000000e+00 +/- 0.000000e+00) [K]
    Coulombic Real/kʙ       0.000000e+00 ( 0.000000e+00 +/- 0.000000e+00) [K]
    Coulombic Fourier/kʙ    0.000000e+00 ( 0.000000e+00 +/- 0.000000e+00) [K]
Molecule-molecule
    Van der Waals/kʙ       -1.667183e+05 (-1.668929e+05 +/- 2.765032e+03) [K]
    Van der Waals (Tail)/kʙ-7.123149e+03 (-7.137113e+03 +/- 1.152202e+02) [K]
    Coulombic Real/kʙ      -4.587566e+04 (-4.898488e+04 +/- 2.168260e+03) [K]
    Coulombic Fourier/kʙ   -1.148399e+04 (-1.184108e+04 +/- 3.345244e+02) [K]
    Molecule Intra/kʙ       0.000000e+00 ( 0.000000e+00 +/- 0.000000e+00) [K]


Energy statistics             |  Energy [K]   | Recomputed [K]|  Drift [K]    |
===============================================================================
Total potential energy/kʙ     | -2.408591e+05 | -2.408591e+05 |  3.500388e-11 |
    external field VDW/kʙ     |  0.000000e+00 |  0.000000e+00 |  0.000000e+00 |
    external field Real/kʙ    |  0.000000e+00 |  0.000000e+00 |  0.000000e+00 |
    framework-molecule VDW/kʙ |  0.000000e+00 |  0.000000e+00 |  0.000000e+00 |
    framework-molecule Real/kʙ|  0.000000e+00 |  0.000000e+00 |  0.000000e+00 |
    molecule-molecule VDW/kʙ  | -1.733280e+05 | -1.733280e+05 | -2.450272e-10 |
    molecule-molecule Real/kʙ | -4.902385e+04 | -4.902385e+04 |  2.537782e-10 |
    Van der Waals (Tail)/kʙ   | -7.312395e+03 | -7.312395e+03 |  0.000000e+00 |
    Ewald Fourier/kʙ          |  1.060142e+04 |  1.060142e+04 |  2.625291e-11 |
    Ewald self/kʙ             | -3.334385e+06 | -3.334385e+06 |  0.000000e+00 |
    Ewald exclusion/kʙ        |  3.312589e+06 |  3.312589e+06 |  0.000000e+00 |
    intra VDW/kʙ              |  0.000000e+00 |  0.000000e+00 |  0.000000e+00 |
    intra Coulombic/kʙ        |  0.000000e+00 |  0.000000e+00 |  0.000000e+00 |
    polarization/kʙ           |  0.000000e+00 |  0.000000e+00 |  0.000000e+00 |
    dU/dlambda VDW/kʙ         |  0.000000e+00 |  0.000000e+00 |  0.000000e+00 |
    dU/dlambda Real/kʙ        |  0.000000e+00 |  0.000000e+00 |  0.000000e+00 |
    dU/dlambda Ewald/kʙ       |  0.000000e+00 |  0.000000e+00 |  0.000000e+00 |
-------------------------------------------------------------------------------


Monte-Carlo moves statistics
===============================================================================

    Volume change        all:                5050
    Volume change        total:              5050
    Volume change        constructed:        5050
    Volume change        accepted:           1752
    Volume change        fraction:       0.346931
    Volume change        max-change:     0.050000

Component 0 [CO2]
    Reinsertion (CBMC)   all:              248881
    Reinsertion (CBMC)   total:            248881
    Reinsertion (CBMC)   constructed:      216746
    Reinsertion (CBMC)   accepted:           2848
    Reinsertion (CBMC)   fraction:       0.011443
    Reinsertion (CBMC)   max-change:     0.000000

    Translation          all:              247727
    Translation          total:             82608      82306      82813
    Translation          constructed:       82591      82306      82813
    Translation          accepted:          30198      37116      45098
    Translation          fraction:       0.365558   0.450951   0.544576
    Translation          max-change:     0.973913   0.750000   0.565217

    Rotation             all:              248342
    Rotation             total:             82416      82848      83078
    Rotation             constructed:       82416      82848      83006
    Rotation             accepted:          46306      45218      29184
    Rotation             fraction:       0.561857   0.545795   0.351284
    Rotation             max-change:     0.545455   0.583333   1.105263



Production run counting of the MC moves summed over systems and components
===============================================================================

Volume change                          5050 (0.6733 [%])
Reinsertion (CBMC)                   248881 (33.1841 [%])
Translation                          247727 (33.0303 [%])
Rotation                             248342 (33.1123 [%])

Production count MC-steps:           750000 [-]
               All summed:           750000 [-]
               difference:                0 [-]


Production run CPU timings of the MC moves
===============================================================================

Component 0 CO2

Rotation                             35.168988 [s]
    Ewald                            18.582405 [s]
    ExternalField-Molecule            0.009248 [s]
    Framework-Molecule                0.007752 [s]
    Molecule-Molecule                15.055455 [s]
    Overhead                          1.514128 [s]

Reinsertion (CBMC)                  116.773412 [s]
    Ewald                            16.303355 [s]
    NonEwald                        100.234545 [s]
    Overhead                          0.235512 [s]

Translation                          35.044150 [s]
    Ewald                            18.536859 [s]
    ExternalField-Molecule            0.010880 [s]
    Framework-Molecule                0.015054 [s]
    Molecule-Molecule                15.087590 [s]
    Overhead                          1.393767 [s]



Volume change                         23.649119 [s]
    Ewald                             11.274116 [s]
    NonEwald                          11.580760 [s]
    Tail                               0.647202 [s]

Property sampling                     0.253289 [s]
Energy/pressure sampling:             5.178873 [s]


Production run CPU timings of the MC moves summed over systems and components
===============================================================================


Translation                          35.044150 [s]
    Ewald                            18.536859 [s]
    ExternalField-Molecule            0.010880 [s]
    Framework-Molecule                0.015054 [s]
    Molecule-Molecule                15.087590 [s]
    Overhead                          1.393767 [s]

Rotation                             35.168988 [s]
    Ewald                            18.582405 [s]
    ExternalField-Molecule            0.009248 [s]
    Framework-Molecule                0.007752 [s]
    Molecule-Molecule                15.055455 [s]
    Overhead                          1.514128 [s]

Volume change                        23.649119 [s]
    Ewald                            11.274116 [s]
    NonEwald                         11.580760 [s]
    Tail                              0.647202 [s]
    Overhead                          0.147041 [s]

Reinsertion (CBMC)                  116.773412 [s]
    Ewald                            16.303355 [s]
    NonEwald                        100.234545 [s]
    Overhead                          0.235512 [s]

Property sampling:                    0.253289 [s]
Energy/pressure sampling:             5.178873 [s]

Production simulation time:         216.653759 [s]
                All summed:         216.067831 [s]
                  Overhead:           0.585928 [s]


Initalization simulation time:       40.839713 [s]
Equilibration simulation time:        0.000000 [s]
Production simulation time:         216.653759 [s]
Total simulation time:              257.493472 [s]


Energy averages and statistics:
===============================================================================

Framework-molecule energy:
-------------------------------------------------------------------------------



Framework-molecule energy contributions per energy type:
-------------------------------------------------------------------------------



Inter-molecular energy:
-------------------------------------------------------------------------------

    Inter-molecular energy/kʙ 0-0 [CO2-CO2]:
    ---------------------------------------------------------------------------
        Block[  0] -2.309199e+05
        Block[  1] -2.378581e+05
        Block[  2] -2.297573e+05
        Block[  3] -2.383053e+05
        Block[  4] -2.376506e+05
        -----------------------------------------------------------------------
        Average  -2.348983e+05 +/-  5.200861e+03 [K]



Inter-molecular energy contributions per energy type:
-------------------------------------------------------------------------------

    Van der Waals energy/kʙ 0-0 [CO2-CO2]:
    ---------------------------------------------------------------------------
        Block[  0] -1.652017e+05
        Block[  1] -1.691007e+05
        Block[  2] -1.639378e+05
        Block[  3] -1.684624e+05
        Block[  4] -1.680175e+05
        -----------------------------------------------------------------------
        Average  -1.669440e+05 +/-  2.788629e+03 [K]

    VDW Tail-Correction energy/kʙ 0-0 [CO2-CO2]:
    ---------------------------------------------------------------------------
        Block[  0] -7.080349e+03
        Block[  1] -7.235983e+03
        Block[  2] -7.006211e+03
        Block[  3] -7.187722e+03
        Block[  4] -7.179727e+03
        -----------------------------------------------------------------------
        Average  -7.137998e+03 +/-  1.153059e+02 [K]

    Coulomb Real energy/kʙ 0-0 [CO2-CO2]:
    ---------------------------------------------------------------------------
        Block[  0] -4.701609e+04
        Block[  1] -4.970626e+04
        Block[  2] -4.726167e+04
        Block[  3] -5.054799e+04
        Block[  4] -5.036907e+04
        -----------------------------------------------------------------------
        Average  -4.898022e+04 +/-  2.125511e+03 [K]

    Coulomb Fourier energy/kʙ 0-0 [CO2-CO2]:
    ---------------------------------------------------------------------------
        Block[  0] -1.162179e+04
        Block[  1] -1.181514e+04
        Block[  2] -1.155165e+04
        Block[  3] -1.210722e+04
        Block[  4] -1.208431e+04
        -----------------------------------------------------------------------
        Average  -1.183602e+04 +/-  3.179670e+02 [K]


Total energy/kʙ
-------------------------------------------------------------------------------
    Block[  0] -2.309199e+05
    Block[  1] -2.378581e+05
    Block[  2] -2.297573e+05
    Block[  3] -2.383053e+05
    Block[  4] -2.376506e+05
    ---------------------------------------------------------------------------
    Average  -2.348983e+05 +/-  5.200861e+03 [K]

Pressure averages and statistics:
===============================================================================

Average pressure tensor: 
-------------------------------------------------------------------------------
 9.1934e+01  6.8533e+00  6.9895e+00 +/- 5.9063e+01 5.7531e+01 5.0643e+01 [bar]
 6.8533e+00  1.3627e+02  1.3692e+01 +/- 5.7531e+01 1.1182e+02 7.6831e+01 [bar]
 6.9895e+00  1.3692e+01  1.6245e+02 +/- 5.0643e+01 7.6831e+01 1.2995e+02 [bar]

    Block[  0]  5.073935e+07
    Block[  1]  5.188933e+07
    Block[  2]  5.027607e+07
    Block[  3]  5.159730e+07
    Block[  4]  5.154120e+07
    ---------------------------------------------------------------------------
    Ideal gas pressure   5.120865e+07 +/-  5.035957e-02 [Pa]
                         5.120865e+02 +/-  8.362409e+00 [bar]


    Block[  0] -3.550227e+07
    Block[  1] -3.341859e+07
    Block[  2] -4.178697e+07
    Block[  3] -4.034092e+07
    Block[  4] -3.988565e+07
    ---------------------------------------------------------------------------
    Excess pressure  -3.818688e+07 +/-  4.408079e+06 [Pa]
                     -3.818688e+02 +/-  4.408079e+01 [bar]


    Block[  0]  1.523708e+07
    Block[  1]  1.847074e+07
    Block[  2]  8.489106e+06
    Block[  3]  1.125638e+07
    Block[  4]  1.165555e+07
    ---------------------------------------------------------------------------
    Pressure average   1.302177e+07 +/-  4.813263e+06 [Pa]
                       1.302177e+02 +/-  4.813263e+01 [bar]


Enthalpy of adsorption
===============================================================================

No fluctuating components present.


Densities
===============================================================================

Component 0 (CO2)
    Block[  0] 150
    Block[  1] 150
    Block[  2] 150
    Block[  3] 150
    Block[  4] 150
    -----------------------------------------------------------------------
    Density average   1.500000e+02 +/-  0.000000e+00 [molecules]
    Density average   1.483610e-02 +/-  2.422745e-04 [molec/A^3]
    Density average   1.083951e+03 +/-  1.770099e+01 [kg.m⁻³]

