Compiler and run-time data
===============================================================================
RASPA 3.0.4

Random seed: 3525283930

Compiled as a 64-bits application
Compiler: gcc Ubuntu Clang 18.1.3 (1ubuntu1)
Compile Date = Mar 15 2025, Compile Time = 19:39:45

2025-06-03 10:59:44.539936
Simulation started on Tue, Jun 03
The start time was 10:59:00

Hostname:    c109
OS type:     Linux on x86_64
OS release:  6.8.0-58-generic
OS version:  #60-Ubuntu SMP PREEMPT_DYNAMIC Fri Mar 14 18:29:48 UTC 2025


Mutual consistent basic set of units:
===============================================================================

Unit of temperature: 1 [K]
Unit of length:      1e-10 [m]
Unit of time:        1e-12 [s]
Unit of mass:        1.6605402e-27 [kg]
Unit of charge:      1.60217733e-19 [C/particle]


Boltzmann constant (internal units):          0.8314464919307584 [-]
represents conversion from energy (internal units) to temperature (in Kelvin)

Derived units and their conversion factors:
===============================================================================

Unit of energy:                           1.6605402000000002e-23 [J]
Unit of energy:                           10.000008872307538 [J.mol⁻¹]
Unit of velocity:                         100 [m.s⁻¹]
Unit of force:                            1.6605402000000002e-13 [N]
Unit of diffusion:                        1.0000000000000002e-08 [m².s⁻¹]
Unit of acceleration:                     1.0000000000000002e-08 [m².s⁻¹]
Unit of torque:                           1.6605402000000002e-23 [N.m]
Unit of pressure:                         16605402 [Pa]
Unit of volume:                           1e-30 [m³]
Unit of density:                          1660.5402 [kg.m⁻³]
Unit of dynamic viscosity:                1.6605401999999997e-05 [N.s.m⁻²]
Unit of enthalpy:                         1.6605402000000002e-23 [J]
Unit of polarizability:                   1.5458657349975198e-35 [-]
Unit of Coulomb potential:                167101.08000665612 [K]
Unit of dielectric constant:              1.5458657349975193e-05 [s².C².kg⁻¹.m⁻³]
Unit of dipole moment:                    1.60217733e-29 [C.m]
Unit of Debye:                            4.803206799099162 [C.m]
Unit of electric potential:               0.00010364272224473431 [V]
Unit of electric field:                   1036427.222447343 [V.m⁻¹]
Unit of isothermal compressibility:       6.02213665167516e-08 [Pa⁻¹]
Unit of heat capacity:                    10.000008872307538 [J.mol⁻¹.K⁻¹]
Unit of volumetric expansion coefficient: 1 [K⁻¹]


Internal conversion factors:
===============================================================================

Energy (internal units) to Kelvin:      1.202724284692786 [-]
Kelvin to energy (internal units):      0.8314457542157567 [-]


System definitions
===============================================================================

Temperature:          250 [K]
Beta:                 0.0048108928702210625 [-]
Pressure:             0 [Pa]
Helium void fraction: 1 [-]

Box:      30.00000   0.00000   0.00000
           0.00000  30.00000   0.00000
           0.00000   0.00000  30.00000
Lengths:  30.00000  30.00000  30.00000
Angles:   90.00000  90.00000  90.00000
Rectangular boundary conditions



Property measurement settings
===============================================================================




Pseudo-atoms
===============================================================================

  0 - C_co2    framework-atom: false
  1 - O_co2    framework-atom: false

  0 - C_co2    mass: 12.00000, charge:  0.70000
  1 - O_co2    mass: 15.99940, charge: -0.35000

  0 - C_co2    polarizability:  0.00000
  1 - O_co2    polarizability:  0.00000

  0 - J. J. Potoff et al., AIChE J. 2001, 47, 1676–1682.
  1 - J. J. Potoff et al., AIChE J. 2001, 47, 1676–1682.

Force field status
===============================================================================

Cutoff Framework-Molecule VDW:  12.00000 [Å]
Cutoff Molecule-Molecule VDW:   12.00000 [Å]
Cutoff Coulomb:                 12.00000 [Å]

Overlap-criteria VDW:           1.000000e+05 [K]

C_co2    - C_co2    Lennard-Jones p₀/kʙ:  27.00000 [K], p₁:  2.80000 [Å]
                                  shift:   0.00000 [K], tailcorrections: true
C_co2    - O_co2    Lennard-Jones p₀/kʙ:  46.18441 [K], p₁:  2.92500 [Å]
                                  shift:   0.00000 [K], tailcorrections: true
O_co2    - O_co2    Lennard-Jones p₀/kʙ:  79.00000 [K], p₁:  3.05000 [Å]
                                  shift:   0.00000 [K], tailcorrections: true

Ewald precision: 1e-06
Ewald alpha: 0.26505830360350674
Ewald k-vectors: 8 8 8


Component definitions
===============================================================================

Component 0 [CO2]

    Type: Adsorbate

    Critical temperature:  304.1282 [K]
    Critical pressure:     7377300 [Pa]
    Acentric factor:       0.22394 [-]

    Mol-fraction:                 1 [-]
    Swappable:                   true

    Mass:                         43.9988 [-]
    Fugacity coefficient:         -nan [-]
    Bulk fluid density:           0 [-]
    Compressibility:              1 [-]
    Excess molecules:             0 [-]

    Number Of Atoms:    3
    CBMC starting bead: 0
      0: O_co2  position  0.00000 -0.00000  1.16000, charge -0.35000
      1: C_co2  position  0.00000 -0.00000  0.00000, charge  0.70000
      2: O_co2  position  0.00000 -0.00000 -1.16000, charge -0.35000
    Diagonalized inertia-vector:      43.05758528 43.05758528 0.00000000
    Translational degrees of freedom: 3
    Rotational degrees of freedom:    2
    Shape of the molecule is: 'Linear'
    Net-charge:        0.00000000 [e]

    Move probabilities:
    Translation:                   0.199203 [-]
    Random translation:            0.000000 [-]
    Rotation:                      0.199203 [-]
    Random rotation:               0.000000 [-]
    Volume change:                 0.000000 [-]
    Reinsertion (CBMC):            0.199203 [-]
    Identity change (CBMC):        0.000000 [-]
    Swap:                          0.000000 [-]
    Swap (CBMC):                   0.000000 [-]
    Swap (CFCMC):                  0.000000 [-]
    Swap (CB/CFCMC):               0.000000 [-]
    Gibbs volume:                  0.003984 [-]
    Gibbs swap (CBMC):             0.398406 [-]
    Gibbs swap (CFCMC):            0.000000 [-]
    Widom:                         0.000000 [-]
    Widom (CFCMC):                 0.000000 [-]
    Widom (CB/CFCMC):              0.000000 [-]
    Parallel tempering:            0.000000 [-]
    Hybrid MC:                     0.000000 [-]

    number of blocking-pockets: 0

    number of bonds: 0





Number of pseudo-atoms
===============================================================================

Component   0 (CO2)
-------------------------------------------------------------------------------
    index   0 (C_co2): 40 atoms
    index   1 (O_co2): 80 atoms

Total number of pseudo-atoms:
-------------------------------------------------------------------------------
    index   0 (C_co2): 40 atoms
    index   1 (O_co2): 80 atoms




Energy status Recomputed from scratch
===============================================================================

Total potential energy/kʙ       -7.659218e+03 [K]
    external field VDW/kʙ        0.000000e+00 [K]
    external field Real/kʙ       0.000000e+00 [K]
    framework-molecule VDW/kʙ    0.000000e+00 [K]
    framework-molecule Real/kʙ   0.000000e+00 [K]
    molecule-molecule VDW/kʙ    -5.733511e+03 [K]
    molecule-molecule Real/kʙ   -1.791780e+03 [K]
    Van der Waals (Tail)/kʙ     -1.100506e+02 [K]
    Ewald Fourier/kʙ             2.328349e+03 [K]
    Ewald self/kʙ               -7.346713e+05 [K]
    Ewald exclusion/kʙ           7.323191e+05 [K]
    intra VDW/kʙ                 0.000000e+00 [K]
    intra Coulombic/kʙ           0.000000e+00 [K]
    polarization/kʙ              0.000000e+00 [K]
    dU/dlambda VDW/kʙ            0.000000e+00 [K]
    dU/dlambda Real/kʙ           0.000000e+00 [K]
    dU/dlambda Ewald/kʙ          0.000000e+00 [K]





Initialization: Current cycle: 0 out of 2000
===============================================================================

Box:      29.51022   0.00000   0.00000
           0.00000  29.51022   0.00000
           0.00000   0.00000  29.51022
Lengths:  29.51022  29.51022  29.51022
Angles:   90.00000  90.00000  90.00000
Rectangular boundary conditions

net charge:   0.00000000

component   0 (CO2) lambda:  0 occupancy:  1 (1.000000)
    net charge:   0.00000000 [e]

Amount of molecules per component :
-------------------------------------------------------------------------------
Component 0 (CO2)
    molecules:         2.600000e+01 molecules
    number density:    1.011710e-03 molec/A^3
    density:           7.391726e+01 kg/m^3

Total potential energy/kʙ       -2.912716e+03 [K]
-------------------------------------------------------------------------------
    external field VDW/kʙ        0.000000e+00 [K]
    external field Real/kʙ       0.000000e+00 [K]
    framework-molecule VDW/kʙ    0.000000e+00 [K]
    framework-molecule Real/kʙ   0.000000e+00 [K]
    molecule-molecule VDW/kʙ    -2.033953e+03 [K]
    molecule-molecule Real/kʙ   -7.710368e+02 [K]
    Van der Waals (Tail)/kʙ     -4.885011e+01 [K]
    Ewald Fourier/kʙ             1.470070e+03 [K]
    Ewald self/kʙ               -4.775363e+05 [K]
    Ewald exclusion/kʙ           4.760074e+05 [K]
    intra VDW/kʙ                 0.000000e+00 [K]
    intra Coulombic/kʙ           0.000000e+00 [K]
    polarization/kʙ              0.000000e+00 [K]
    dU/dlambda VDW/kʙ            0.000000e+00 [K]
    dU/dlambda Real/kʙ           0.000000e+00 [K]
    dU/dlambda Ewald/kʙ          0.000000e+00 [K]


Initialization: Current cycle: 100 out of 2000
===============================================================================

Box:      31.27688   0.00000   0.00000
           0.00000  31.27688   0.00000
           0.00000   0.00000  31.27688
Lengths:  31.27688  31.27688  31.27688
Angles:   90.00000  90.00000  90.00000
Rectangular boundary conditions

net charge:   0.00000000

component   0 (CO2) lambda:  0 occupancy:  1 (1.000000)
    net charge:   0.00000000 [e]

Amount of molecules per component :
-------------------------------------------------------------------------------
Component 0 (CO2)
    molecules:         1.400000e+01 molecules
    number density:    4.575703e-04 molec/A^3
    density:           3.343087e+01 kg/m^3

Total potential energy/kʙ       -3.908315e+02 [K]
-------------------------------------------------------------------------------
    external field VDW/kʙ        0.000000e+00 [K]
    external field Real/kʙ       0.000000e+00 [K]
    framework-molecule VDW/kʙ    0.000000e+00 [K]
    framework-molecule Real/kʙ   0.000000e+00 [K]
    molecule-molecule VDW/kʙ    -3.149683e+02 [K]
    molecule-molecule Real/kʙ   -5.610665e+01 [K]
    Van der Waals (Tail)/kʙ     -1.189658e+01 [K]
    Ewald Fourier/kʙ             8.154190e+02 [K]
    Ewald self/kʙ               -2.571349e+05 [K]
    Ewald exclusion/kʙ           2.563117e+05 [K]
    intra VDW/kʙ                 0.000000e+00 [K]
    intra Coulombic/kʙ           0.000000e+00 [K]
    polarization/kʙ              0.000000e+00 [K]
    dU/dlambda VDW/kʙ            0.000000e+00 [K]
    dU/dlambda Real/kʙ           0.000000e+00 [K]
    dU/dlambda Ewald/kʙ          0.000000e+00 [K]


Initialization: Current cycle: 200 out of 2000
===============================================================================

Box:      32.03696   0.00000   0.00000
           0.00000  32.03696   0.00000
           0.00000   0.00000  32.03696
Lengths:  32.03696  32.03696  32.03696
Angles:   90.00000  90.00000  90.00000
Rectangular boundary conditions

net charge:   0.00000000

component   0 (CO2) lambda:  0 occupancy:  1 (1.000000)
    net charge:   0.00000000 [e]

Amount of molecules per component :
-------------------------------------------------------------------------------
Component 0 (CO2)
    molecules:         1.500000e+01 molecules
    number density:    4.561812e-04 molec/A^3
    density:           3.332938e+01 kg/m^3

Total potential energy/kʙ       -1.035614e+03 [K]
-------------------------------------------------------------------------------
    external field VDW/kʙ        0.000000e+00 [K]
    external field Real/kʙ       0.000000e+00 [K]
    framework-molecule VDW/kʙ    0.000000e+00 [K]
    framework-molecule Real/kʙ   0.000000e+00 [K]
    molecule-molecule VDW/kʙ    -9.087272e+02 [K]
    molecule-molecule Real/kʙ   -2.057131e+02 [K]
    Van der Waals (Tail)/kʙ     -1.270764e+01 [K]
    Ewald Fourier/kʙ             9.736181e+02 [K]
    Ewald self/kʙ               -2.755017e+05 [K]
    Ewald exclusion/kʙ           2.746196e+05 [K]
    intra VDW/kʙ                 0.000000e+00 [K]
    intra Coulombic/kʙ           0.000000e+00 [K]
    polarization/kʙ              0.000000e+00 [K]
    dU/dlambda VDW/kʙ            0.000000e+00 [K]
    dU/dlambda Real/kʙ           0.000000e+00 [K]
    dU/dlambda Ewald/kʙ          0.000000e+00 [K]


Initialization: Current cycle: 300 out of 2000
===============================================================================

Box:      32.80983   0.00000   0.00000
           0.00000  32.80983   0.00000
           0.00000   0.00000  32.80983
Lengths:  32.80983  32.80983  32.80983
Angles:   90.00000  90.00000  90.00000
Rectangular boundary conditions

net charge:   0.00000000

component   0 (CO2) lambda:  0 occupancy:  1 (1.000000)
    net charge:   0.00000000 [e]

Amount of molecules per component :
-------------------------------------------------------------------------------
Component 0 (CO2)
    molecules:         1.200000e+01 molecules
    number density:    3.397576e-04 molec/A^3
    density:           2.482327e+01 kg/m^3

Total potential energy/kʙ       -3.856229e+02 [K]
-------------------------------------------------------------------------------
    external field VDW/kʙ        0.000000e+00 [K]
    external field Real/kʙ       0.000000e+00 [K]
    framework-molecule VDW/kʙ    0.000000e+00 [K]
    framework-molecule Real/kʙ   0.000000e+00 [K]
    molecule-molecule VDW/kʙ    -5.501140e+02 [K]
    molecule-molecule Real/kʙ    1.416670e+02 [K]
    Van der Waals (Tail)/kʙ     -7.571581e+00 [K]
    Ewald Fourier/kʙ             7.360634e+02 [K]
    Ewald self/kʙ               -2.204014e+05 [K]
    Ewald exclusion/kʙ           2.196957e+05 [K]
    intra VDW/kʙ                 0.000000e+00 [K]
    intra Coulombic/kʙ           0.000000e+00 [K]
    polarization/kʙ              0.000000e+00 [K]
    dU/dlambda VDW/kʙ            0.000000e+00 [K]
    dU/dlambda Real/kʙ           0.000000e+00 [K]
    dU/dlambda Ewald/kʙ          0.000000e+00 [K]


Initialization: Current cycle: 400 out of 2000
===============================================================================

Box:      33.08092   0.00000   0.00000
           0.00000  33.08092   0.00000
           0.00000   0.00000  33.08092
Lengths:  33.08092  33.08092  33.08092
Angles:   90.00000  90.00000  90.00000
Rectangular boundary conditions

net charge:   0.00000000

component   0 (CO2) lambda:  0 occupancy:  1 (1.000000)
    net charge:   0.00000000 [e]

Amount of molecules per component :
-------------------------------------------------------------------------------
Component 0 (CO2)
    molecules:         1.000000e+01 molecules
    number density:    2.762276e-04 molec/A^3
    density:           2.018166e+01 kg/m^3

Total potential energy/kʙ       -4.981121e+02 [K]
-------------------------------------------------------------------------------
    external field VDW/kʙ        0.000000e+00 [K]
    external field Real/kʙ       0.000000e+00 [K]
    framework-molecule VDW/kʙ    0.000000e+00 [K]
    framework-molecule Real/kʙ   0.000000e+00 [K]
    molecule-molecule VDW/kʙ    -3.753015e+02 [K]
    molecule-molecule Real/kʙ   -9.912344e+01 [K]
    Van der Waals (Tail)/kʙ     -5.129834e+00 [K]
    Ewald Fourier/kʙ             5.694991e+02 [K]
    Ewald self/kʙ               -1.836678e+05 [K]
    Ewald exclusion/kʙ           1.830798e+05 [K]
    intra VDW/kʙ                 0.000000e+00 [K]
    intra Coulombic/kʙ           0.000000e+00 [K]
    polarization/kʙ              0.000000e+00 [K]
    dU/dlambda VDW/kʙ            0.000000e+00 [K]
    dU/dlambda Real/kʙ           0.000000e+00 [K]
    dU/dlambda Ewald/kʙ          0.000000e+00 [K]


Initialization: Current cycle: 500 out of 2000
===============================================================================

Box:      33.22226   0.00000   0.00000
           0.00000  33.22226   0.00000
           0.00000   0.00000  33.22226
Lengths:  33.22226  33.22226  33.22226
Angles:   90.00000  90.00000  90.00000
Rectangular boundary conditions

net charge:   0.00000000

component   0 (CO2) lambda:  0 occupancy:  1 (1.000000)
    net charge:   0.00000000 [e]

Amount of molecules per component :
-------------------------------------------------------------------------------
Component 0 (CO2)
    molecules:         1.100000e+01 molecules
    number density:    2.999889e-04 molec/A^3
    density:           2.191770e+01 kg/m^3

Total potential energy/kʙ       -5.569917e+02 [K]
-------------------------------------------------------------------------------
    external field VDW/kʙ        0.000000e+00 [K]
    external field Real/kʙ       0.000000e+00 [K]
    framework-molecule VDW/kʙ    0.000000e+00 [K]
    framework-molecule Real/kʙ   0.000000e+00 [K]
    molecule-molecule VDW/kʙ    -2.823867e+02 [K]
    molecule-molecule Real/kʙ   -2.428658e+02 [K]
    Van der Waals (Tail)/kʙ     -6.128217e+00 [K]
    Ewald Fourier/kʙ             6.212511e+02 [K]
    Ewald self/kʙ               -2.020346e+05 [K]
    Ewald exclusion/kʙ           2.013877e+05 [K]
    intra VDW/kʙ                 0.000000e+00 [K]
    intra Coulombic/kʙ           0.000000e+00 [K]
    polarization/kʙ              0.000000e+00 [K]
    dU/dlambda VDW/kʙ            0.000000e+00 [K]
    dU/dlambda Real/kʙ           0.000000e+00 [K]
    dU/dlambda Ewald/kʙ          0.000000e+00 [K]


Initialization: Current cycle: 600 out of 2000
===============================================================================

Box:      33.29097   0.00000   0.00000
           0.00000  33.29097   0.00000
           0.00000   0.00000  33.29097
Lengths:  33.29097  33.29097  33.29097
Angles:   90.00000  90.00000  90.00000
Rectangular boundary conditions

net charge:   0.00000000

component   0 (CO2) lambda:  0 occupancy:  1 (1.000000)
    net charge:   0.00000000 [e]

Amount of molecules per component :
-------------------------------------------------------------------------------
Component 0 (CO2)
    molecules:         1.000000e+01 molecules
    number density:    2.710319e-04 molec/A^3
    density:           1.980206e+01 kg/m^3

Total potential energy/kʙ       -5.906839e+02 [K]
-------------------------------------------------------------------------------
    external field VDW/kʙ        0.000000e+00 [K]
    external field Real/kʙ       0.000000e+00 [K]
    framework-molecule VDW/kʙ    0.000000e+00 [K]
    framework-molecule Real/kʙ   0.000000e+00 [K]
    molecule-molecule VDW/kʙ    -3.549618e+02 [K]
    molecule-molecule Real/kʙ   -2.242342e+02 [K]
    Van der Waals (Tail)/kʙ     -5.033345e+00 [K]
    Ewald Fourier/kʙ             5.816018e+02 [K]
    Ewald self/kʙ               -1.836678e+05 [K]
    Ewald exclusion/kʙ           1.830798e+05 [K]
    intra VDW/kʙ                 0.000000e+00 [K]
    intra Coulombic/kʙ           0.000000e+00 [K]
    polarization/kʙ              0.000000e+00 [K]
    dU/dlambda VDW/kʙ            0.000000e+00 [K]
    dU/dlambda Real/kʙ           0.000000e+00 [K]
    dU/dlambda Ewald/kʙ          0.000000e+00 [K]


Initialization: Current cycle: 700 out of 2000
===============================================================================

Box:      33.43527   0.00000   0.00000
           0.00000  33.43527   0.00000
           0.00000   0.00000  33.43527
Lengths:  33.43527  33.43527  33.43527
Angles:   90.00000  90.00000  90.00000
Rectangular boundary conditions

net charge:   0.00000000

component   0 (CO2) lambda:  0 occupancy:  1 (1.000000)
    net charge:   0.00000000 [e]

Amount of molecules per component :
-------------------------------------------------------------------------------
Component 0 (CO2)
    molecules:         3.000000e+01 molecules
    number density:    8.026141e-04 molec/A^3
    density:           5.864036e+01 kg/m^3

Total potential energy/kʙ       -2.925242e+03 [K]
-------------------------------------------------------------------------------
    external field VDW/kʙ        0.000000e+00 [K]
    external field Real/kʙ       0.000000e+00 [K]
    framework-molecule VDW/kʙ    0.000000e+00 [K]
    framework-molecule Real/kʙ   0.000000e+00 [K]
    molecule-molecule VDW/kʙ    -2.590500e+03 [K]
    molecule-molecule Real/kʙ   -3.587315e+02 [K]
    Van der Waals (Tail)/kʙ     -4.471614e+01 [K]
    Ewald Fourier/kʙ             1.832875e+03 [K]
    Ewald self/kʙ               -5.510035e+05 [K]
    Ewald exclusion/kʙ           5.492393e+05 [K]
    intra VDW/kʙ                 0.000000e+00 [K]
    intra Coulombic/kʙ           0.000000e+00 [K]
    polarization/kʙ              0.000000e+00 [K]
    dU/dlambda VDW/kʙ            0.000000e+00 [K]
    dU/dlambda Real/kʙ           0.000000e+00 [K]
    dU/dlambda Ewald/kʙ          0.000000e+00 [K]


Initialization: Current cycle: 800 out of 2000
===============================================================================

Box:      33.58031   0.00000   0.00000
           0.00000  33.58031   0.00000
           0.00000   0.00000  33.58031
Lengths:  33.58031  33.58031  33.58031
Angles:   90.00000  90.00000  90.00000
Rectangular boundary conditions

net charge:   0.00000000

component   0 (CO2) lambda:  0 occupancy:  1 (1.000000)
    net charge:   0.00000000 [e]

Amount of molecules per component :
-------------------------------------------------------------------------------
Component 0 (CO2)
    molecules:         2.000000e+01 molecules
    number density:    5.281728e-04 molec/A^3
    density:           3.858921e+01 kg/m^3

Total potential energy/kʙ       -2.233549e+03 [K]
-------------------------------------------------------------------------------
    external field VDW/kʙ        0.000000e+00 [K]
    external field Real/kʙ       0.000000e+00 [K]
    framework-molecule VDW/kʙ    0.000000e+00 [K]
    framework-molecule Real/kʙ   0.000000e+00 [K]
    molecule-molecule VDW/kʙ    -1.370422e+03 [K]
    molecule-molecule Real/kʙ   -8.508335e+02 [K]
    Van der Waals (Tail)/kʙ     -1.961744e+01 [K]
    Ewald Fourier/kʙ             1.183437e+03 [K]
    Ewald self/kʙ               -3.673356e+05 [K]
    Ewald exclusion/kʙ           3.661595e+05 [K]
    intra VDW/kʙ                 0.000000e+00 [K]
    intra Coulombic/kʙ           0.000000e+00 [K]
    polarization/kʙ              0.000000e+00 [K]
    dU/dlambda VDW/kʙ            0.000000e+00 [K]
    dU/dlambda Real/kʙ           0.000000e+00 [K]
    dU/dlambda Ewald/kʙ          0.000000e+00 [K]


Initialization: Current cycle: 900 out of 2000
===============================================================================

Box:      33.61222   0.00000   0.00000
           0.00000  33.61222   0.00000
           0.00000   0.00000  33.61222
Lengths:  33.61222  33.61222  33.61222
Angles:   90.00000  90.00000  90.00000
Rectangular boundary conditions

net charge:   0.00000000

component   0 (CO2) lambda:  0 occupancy:  1 (1.000000)
    net charge:   0.00000000 [e]

Amount of molecules per component :
-------------------------------------------------------------------------------
Component 0 (CO2)
    molecules:         2.100000e+01 molecules
    number density:    5.530031e-04 molec/A^3
    density:           4.040335e+01 kg/m^3

Total potential energy/kʙ       -8.052333e+02 [K]
-------------------------------------------------------------------------------
    external field VDW/kʙ        0.000000e+00 [K]
    external field Real/kʙ       0.000000e+00 [K]
    framework-molecule VDW/kʙ    0.000000e+00 [K]
    framework-molecule Real/kʙ   0.000000e+00 [K]
    molecule-molecule VDW/kʙ    -6.151334e+02 [K]
    molecule-molecule Real/kʙ   -1.355781e+02 [K]
    Van der Waals (Tail)/kʙ     -2.156667e+01 [K]
    Ewald Fourier/kʙ             1.201963e+03 [K]
    Ewald self/kʙ               -3.857024e+05 [K]
    Ewald exclusion/kʙ           3.844675e+05 [K]
    intra VDW/kʙ                 0.000000e+00 [K]
    intra Coulombic/kʙ           0.000000e+00 [K]
    polarization/kʙ              0.000000e+00 [K]
    dU/dlambda VDW/kʙ            0.000000e+00 [K]
    dU/dlambda Real/kʙ           0.000000e+00 [K]
    dU/dlambda Ewald/kʙ          0.000000e+00 [K]


Initialization: Current cycle: 1000 out of 2000
===============================================================================

Box:      33.80354   0.00000   0.00000
           0.00000  33.80354   0.00000
           0.00000   0.00000  33.80354
Lengths:  33.80354  33.80354  33.80354
Angles:   90.00000  90.00000  90.00000
Rectangular boundary conditions

net charge:   0.00000000

component   0 (CO2) lambda:  0 occupancy:  1 (1.000000)
    net charge:   0.00000000 [e]

Amount of molecules per component :
-------------------------------------------------------------------------------
Component 0 (CO2)
    molecules:         2.600000e+01 molecules
    number density:    6.731111e-04 molec/A^3
    density:           4.917865e+01 kg/m^3

Total potential energy/kʙ       -3.491641e+03 [K]
-------------------------------------------------------------------------------
    external field VDW/kʙ        0.000000e+00 [K]
    external field Real/kʙ       0.000000e+00 [K]
    framework-molecule VDW/kʙ    0.000000e+00 [K]
    framework-molecule Real/kʙ   0.000000e+00 [K]
    molecule-molecule VDW/kʙ    -2.037023e+03 [K]
    molecule-molecule Real/kʙ   -1.351218e+03 [K]
    Van der Waals (Tail)/kʙ     -3.250097e+01 [K]
    Ewald Fourier/kʙ             1.458048e+03 [K]
    Ewald self/kʙ               -4.775363e+05 [K]
    Ewald exclusion/kʙ           4.760074e+05 [K]
    intra VDW/kʙ                 0.000000e+00 [K]
    intra Coulombic/kʙ           0.000000e+00 [K]
    polarization/kʙ              0.000000e+00 [K]
    dU/dlambda VDW/kʙ            0.000000e+00 [K]
    dU/dlambda Real/kʙ           0.000000e+00 [K]
    dU/dlambda Ewald/kʙ          0.000000e+00 [K]


Initialization: Current cycle: 1100 out of 2000
===============================================================================

Box:      33.76298   0.00000   0.00000
           0.00000  33.76298   0.00000
           0.00000   0.00000  33.76298
Lengths:  33.76298  33.76298  33.76298
Angles:   90.00000  90.00000  90.00000
Rectangular boundary conditions

net charge:   0.00000000

component   0 (CO2) lambda:  0 occupancy:  1 (1.000000)
    net charge:   0.00000000 [e]

Amount of molecules per component :
-------------------------------------------------------------------------------
Component 0 (CO2)
    molecules:         2.700000e+01 molecules
    number density:    7.015220e-04 molec/A^3
    density:           5.125440e+01 kg/m^3

Total potential energy/kʙ       -1.774470e+03 [K]
-------------------------------------------------------------------------------
    external field VDW/kʙ        0.000000e+00 [K]
    external field Real/kʙ       0.000000e+00 [K]
    framework-molecule VDW/kʙ    0.000000e+00 [K]
    framework-molecule Real/kʙ   0.000000e+00 [K]
    molecule-molecule VDW/kʙ    -1.711386e+03 [K]
    molecule-molecule Real/kʙ    1.716145e+01 [K]
    Van der Waals (Tail)/kʙ     -3.517558e+01 [K]
    Ewald Fourier/kʙ             1.542683e+03 [K]
    Ewald self/kʙ               -4.959031e+05 [K]
    Ewald exclusion/kʙ           4.943154e+05 [K]
    intra VDW/kʙ                 0.000000e+00 [K]
    intra Coulombic/kʙ           0.000000e+00 [K]
    polarization/kʙ              0.000000e+00 [K]
    dU/dlambda VDW/kʙ            0.000000e+00 [K]
    dU/dlambda Real/kʙ           0.000000e+00 [K]
    dU/dlambda Ewald/kʙ          0.000000e+00 [K]


Initialization: Current cycle: 1200 out of 2000
===============================================================================

Box:      33.61228   0.00000   0.00000
           0.00000  33.61228   0.00000
           0.00000   0.00000  33.61228
Lengths:  33.61228  33.61228  33.61228
Angles:   90.00000  90.00000  90.00000
Rectangular boundary conditions

net charge:   0.00000000

component   0 (CO2) lambda:  0 occupancy:  1 (1.000000)
    net charge:   0.00000000 [e]

Amount of molecules per component :
-------------------------------------------------------------------------------
Component 0 (CO2)
    molecules:         1.700000e+01 molecules
    number density:    4.476671e-04 molec/A^3
    density:           3.270733e+01 kg/m^3

Total potential energy/kʙ       -8.098046e+02 [K]
-------------------------------------------------------------------------------
    external field VDW/kʙ        0.000000e+00 [K]
    external field Real/kʙ       0.000000e+00 [K]
    framework-molecule VDW/kʙ    0.000000e+00 [K]
    framework-molecule Real/kʙ   0.000000e+00 [K]
    molecule-molecule VDW/kʙ    -5.710103e+02 [K]
    molecule-molecule Real/kʙ   -1.696607e+02 [K]
    Van der Waals (Tail)/kʙ     -1.413319e+01 [K]
    Ewald Fourier/kʙ             9.446955e+02 [K]
    Ewald self/kʙ               -3.122353e+05 [K]
    Ewald exclusion/kʙ           3.112356e+05 [K]
    intra VDW/kʙ                 0.000000e+00 [K]
    intra Coulombic/kʙ           0.000000e+00 [K]
    polarization/kʙ              0.000000e+00 [K]
    dU/dlambda VDW/kʙ            0.000000e+00 [K]
    dU/dlambda Real/kʙ           0.000000e+00 [K]
    dU/dlambda Ewald/kʙ          0.000000e+00 [K]


Initialization: Current cycle: 1300 out of 2000
===============================================================================

Box:      33.62669   0.00000   0.00000
           0.00000  33.62669   0.00000
           0.00000   0.00000  33.62669
Lengths:  33.62669  33.62669  33.62669
Angles:   90.00000  90.00000  90.00000
Rectangular boundary conditions

net charge:   0.00000000

component   0 (CO2) lambda:  0 occupancy:  1 (1.000000)
    net charge:   0.00000000 [e]

Amount of molecules per component :
-------------------------------------------------------------------------------
Component 0 (CO2)
    molecules:         1.600000e+01 molecules
    number density:    4.207921e-04 molec/A^3
    density:           3.074379e+01 kg/m^3

Total potential energy/kʙ       -7.462885e+02 [K]
-------------------------------------------------------------------------------
    external field VDW/kʙ        0.000000e+00 [K]
    external field Real/kʙ       0.000000e+00 [K]
    framework-molecule VDW/kʙ    0.000000e+00 [K]
    framework-molecule Real/kʙ   0.000000e+00 [K]
    molecule-molecule VDW/kʙ    -7.210944e+02 [K]
    molecule-molecule Real/kʙ   -8.225244e+00 [K]
    Van der Waals (Tail)/kʙ     -1.250327e+01 [K]
    Ewald Fourier/kʙ             9.364246e+02 [K]
    Ewald self/kʙ               -2.938685e+05 [K]
    Ewald exclusion/kʙ           2.929276e+05 [K]
    intra VDW/kʙ                 0.000000e+00 [K]
    intra Coulombic/kʙ           0.000000e+00 [K]
    polarization/kʙ              0.000000e+00 [K]
    dU/dlambda VDW/kʙ            0.000000e+00 [K]
    dU/dlambda Real/kʙ           0.000000e+00 [K]
    dU/dlambda Ewald/kʙ          0.000000e+00 [K]


Initialization: Current cycle: 1400 out of 2000
===============================================================================

Box:      33.54527   0.00000   0.00000
           0.00000  33.54527   0.00000
           0.00000   0.00000  33.54527
Lengths:  33.54527  33.54527  33.54527
Angles:   90.00000  90.00000  90.00000
Rectangular boundary conditions

net charge:   0.00000000

component   0 (CO2) lambda:  0 occupancy:  1 (1.000000)
    net charge:   0.00000000 [e]

Amount of molecules per component :
-------------------------------------------------------------------------------
Component 0 (CO2)
    molecules:         1.500000e+01 molecules
    number density:    3.973720e-04 molec/A^3
    density:           2.903268e+01 kg/m^3

Total potential energy/kʙ       -1.925162e+02 [K]
-------------------------------------------------------------------------------
    external field VDW/kʙ        0.000000e+00 [K]
    external field Real/kʙ       0.000000e+00 [K]
    framework-molecule VDW/kʙ    0.000000e+00 [K]
    framework-molecule Real/kʙ   0.000000e+00 [K]
    molecule-molecule VDW/kʙ    -1.714033e+02 [K]
    molecule-molecule Real/kʙ   -1.217321e+00 [K]
    Van der Waals (Tail)/kʙ     -1.106942e+01 [K]
    Ewald Fourier/kʙ             8.732585e+02 [K]
    Ewald self/kʙ               -2.755017e+05 [K]
    Ewald exclusion/kʙ           2.746196e+05 [K]
    intra VDW/kʙ                 0.000000e+00 [K]
    intra Coulombic/kʙ           0.000000e+00 [K]
    polarization/kʙ              0.000000e+00 [K]
    dU/dlambda VDW/kʙ            0.000000e+00 [K]
    dU/dlambda Real/kʙ           0.000000e+00 [K]
    dU/dlambda Ewald/kʙ          0.000000e+00 [K]


Initialization: Current cycle: 1500 out of 2000
===============================================================================

Box:      33.40535   0.00000   0.00000
           0.00000  33.40535   0.00000
           0.00000   0.00000  33.40535
Lengths:  33.40535  33.40535  33.40535
Angles:   90.00000  90.00000  90.00000
Rectangular boundary conditions

net charge:   0.00000000

component   0 (CO2) lambda:  0 occupancy:  1 (1.000000)
    net charge:   0.00000000 [e]

Amount of molecules per component :
-------------------------------------------------------------------------------
Component 0 (CO2)
    molecules:         1.200000e+01 molecules
    number density:    3.219090e-04 molec/A^3
    density:           2.351922e+01 kg/m^3

Total potential energy/kʙ       -4.918527e+02 [K]
-------------------------------------------------------------------------------
    external field VDW/kʙ        0.000000e+00 [K]
    external field Real/kʙ       0.000000e+00 [K]
    framework-molecule VDW/kʙ    0.000000e+00 [K]
    framework-molecule Real/kʙ   0.000000e+00 [K]
    molecule-molecule VDW/kʙ    -3.161483e+02 [K]
    molecule-molecule Real/kʙ   -1.409538e+02 [K]
    Van der Waals (Tail)/kʙ     -7.173822e+00 [K]
    Ewald Fourier/kʙ             6.780909e+02 [K]
    Ewald self/kʙ               -2.204014e+05 [K]
    Ewald exclusion/kʙ           2.196957e+05 [K]
    intra VDW/kʙ                 0.000000e+00 [K]
    intra Coulombic/kʙ           0.000000e+00 [K]
    polarization/kʙ              0.000000e+00 [K]
    dU/dlambda VDW/kʙ            0.000000e+00 [K]
    dU/dlambda Real/kʙ           0.000000e+00 [K]
    dU/dlambda Ewald/kʙ          0.000000e+00 [K]


Initialization: Current cycle: 1600 out of 2000
===============================================================================

Box:      33.42311   0.00000   0.00000
           0.00000  33.42311   0.00000
           0.00000   0.00000  33.42311
Lengths:  33.42311  33.42311  33.42311
Angles:   90.00000  90.00000  90.00000
Rectangular boundary conditions

net charge:   0.00000000

component   0 (CO2) lambda:  0 occupancy:  1 (1.000000)
    net charge:   0.00000000 [e]

Amount of molecules per component :
-------------------------------------------------------------------------------
Component 0 (CO2)
    molecules:         1.300000e+01 molecules
    number density:    3.481792e-04 molec/A^3
    density:           2.543857e+01 kg/m^3

Total potential energy/kʙ       -4.720443e+02 [K]
-------------------------------------------------------------------------------
    external field VDW/kʙ        0.000000e+00 [K]
    external field Real/kʙ       0.000000e+00 [K]
    framework-molecule VDW/kʙ    0.000000e+00 [K]
    framework-molecule Real/kʙ   0.000000e+00 [K]
    molecule-molecule VDW/kʙ    -4.341087e+02 [K]
    molecule-molecule Real/kʙ   -1.211895e+01 [K]
    Van der Waals (Tail)/kʙ     -8.405865e+00 [K]
    Ewald Fourier/kʙ             7.470626e+02 [K]
    Ewald self/kʙ               -2.387682e+05 [K]
    Ewald exclusion/kʙ           2.380037e+05 [K]
    intra VDW/kʙ                 0.000000e+00 [K]
    intra Coulombic/kʙ           0.000000e+00 [K]
    polarization/kʙ              0.000000e+00 [K]
    dU/dlambda VDW/kʙ            0.000000e+00 [K]
    dU/dlambda Real/kʙ           0.000000e+00 [K]
    dU/dlambda Ewald/kʙ          0.000000e+00 [K]


Initialization: Current cycle: 1700 out of 2000
===============================================================================

Box:      33.40836   0.00000   0.00000
           0.00000  33.40836   0.00000
           0.00000   0.00000  33.40836
Lengths:  33.40836  33.40836  33.40836
Angles:   90.00000  90.00000  90.00000
Rectangular boundary conditions

net charge:   0.00000000

component   0 (CO2) lambda:  0 occupancy:  1 (1.000000)
    net charge:   0.00000000 [e]

Amount of molecules per component :
-------------------------------------------------------------------------------
Component 0 (CO2)
    molecules:         1.500000e+01 molecules
    number density:    4.022776e-04 molec/A^3
    density:           2.939109e+01 kg/m^3

Total potential energy/kʙ       -6.206473e+02 [K]
-------------------------------------------------------------------------------
    external field VDW/kʙ        0.000000e+00 [K]
    external field Real/kʙ       0.000000e+00 [K]
    framework-molecule VDW/kʙ    0.000000e+00 [K]
    framework-molecule Real/kʙ   0.000000e+00 [K]
    molecule-molecule VDW/kʙ    -5.049288e+02 [K]
    molecule-molecule Real/kʙ   -1.034000e+02 [K]
    Van der Waals (Tail)/kʙ     -1.120607e+01 [K]
    Ewald Fourier/kʙ             8.809722e+02 [K]
    Ewald self/kʙ               -2.755017e+05 [K]
    Ewald exclusion/kʙ           2.746196e+05 [K]
    intra VDW/kʙ                 0.000000e+00 [K]
    intra Coulombic/kʙ           0.000000e+00 [K]
    polarization/kʙ              0.000000e+00 [K]
    dU/dlambda VDW/kʙ            0.000000e+00 [K]
    dU/dlambda Real/kʙ           0.000000e+00 [K]
    dU/dlambda Ewald/kʙ          0.000000e+00 [K]


Initialization: Current cycle: 1800 out of 2000
===============================================================================

Box:      33.60916   0.00000   0.00000
           0.00000  33.60916   0.00000
           0.00000   0.00000  33.60916
Lengths:  33.60916  33.60916  33.60916
Angles:   90.00000  90.00000  90.00000
Rectangular boundary conditions

net charge:   0.00000000

component   0 (CO2) lambda:  0 occupancy:  1 (1.000000)
    net charge:   0.00000000 [e]

Amount of molecules per component :
-------------------------------------------------------------------------------
Component 0 (CO2)
    molecules:         2.000000e+01 molecules
    number density:    5.268139e-04 molec/A^3
    density:           3.848992e+01 kg/m^3

Total potential energy/kʙ       -1.830317e+03 [K]
-------------------------------------------------------------------------------
    external field VDW/kʙ        0.000000e+00 [K]
    external field Real/kʙ       0.000000e+00 [K]
    framework-molecule VDW/kʙ    0.000000e+00 [K]
    framework-molecule Real/kʙ   0.000000e+00 [K]
    molecule-molecule VDW/kʙ    -1.172052e+03 [K]
    molecule-molecule Real/kʙ   -6.073109e+02 [K]
    Van der Waals (Tail)/kʙ     -1.956696e+01 [K]
    Ewald Fourier/kʙ             1.144725e+03 [K]
    Ewald self/kʙ               -3.673356e+05 [K]
    Ewald exclusion/kʙ           3.661595e+05 [K]
    intra VDW/kʙ                 0.000000e+00 [K]
    intra Coulombic/kʙ           0.000000e+00 [K]
    polarization/kʙ              0.000000e+00 [K]
    dU/dlambda VDW/kʙ            0.000000e+00 [K]
    dU/dlambda Real/kʙ           0.000000e+00 [K]
    dU/dlambda Ewald/kʙ          0.000000e+00 [K]


Initialization: Current cycle: 1900 out of 2000
===============================================================================

Box:      33.74813   0.00000   0.00000
           0.00000  33.74813   0.00000
           0.00000   0.00000  33.74813
Lengths:  33.74813  33.74813  33.74813
Angles:   90.00000  90.00000  90.00000
Rectangular boundary conditions

net charge:   0.00000000

component   0 (CO2) lambda:  0 occupancy:  1 (1.000000)
    net charge:   0.00000000 [e]

Amount of molecules per component :
-------------------------------------------------------------------------------
Component 0 (CO2)
    molecules:         2.000000e+01 molecules
    number density:    5.203323e-04 molec/A^3
    density:           3.801637e+01 kg/m^3

Total potential energy/kʙ       -1.651505e+03 [K]
-------------------------------------------------------------------------------
    external field VDW/kʙ        0.000000e+00 [K]
    external field Real/kʙ       0.000000e+00 [K]
    framework-molecule VDW/kʙ    0.000000e+00 [K]
    framework-molecule Real/kʙ   0.000000e+00 [K]
    molecule-molecule VDW/kʙ    -1.077764e+03 [K]
    molecule-molecule Real/kʙ   -4.767738e+02 [K]
    Van der Waals (Tail)/kʙ     -1.932622e+01 [K]
    Ewald Fourier/kʙ             1.098472e+03 [K]
    Ewald self/kʙ               -3.673356e+05 [K]
    Ewald exclusion/kʙ           3.661595e+05 [K]
    intra VDW/kʙ                 0.000000e+00 [K]
    intra Coulombic/kʙ           0.000000e+00 [K]
    polarization/kʙ              0.000000e+00 [K]
    dU/dlambda VDW/kʙ            0.000000e+00 [K]
    dU/dlambda Real/kʙ           0.000000e+00 [K]
    dU/dlambda Ewald/kʙ          0.000000e+00 [K]


Current cycle: 0 out of 6000
===============================================================================

Box:      33.77866   0.00000   0.00000  Average:  33.77866   0.00000   0.00000
           0.00000  33.77866   0.00000             0.00000  33.77866   0.00000
           0.00000   0.00000  33.77866             0.00000   0.00000  33.77866
Lengths:  33.77866  33.77866  33.77866  Average:  33.77866  33.77866  33.77866
Angles:   90.00000  90.00000  90.00000  Average:  90.00000  90.00000  90.00000
Rectangular boundary conditions

net charge:   0.00000000

component 0 (CO2) lambda:  0 occupancy:  1 (1.000000)
    net charge:   0.00000000 [e]

Amount of molecules per component :
-------------------------------------------------------------------------------
Component 0 (CO2)
    molecules:      2.700000e+01 molecules  (2.700000e+01 +/- 0.000000e+00)
    number density: 7.005457e-04 molec./A^3 (7.005457e-04 +/- 0.000000e+00)
    density:        5.118307e+01 kg/m^3     (5.118307e+01 +/- 0.000000e+00)

Average pressure tensor: 
-------------------------------------------------------------------------------
 2.4180e+01  0.0000e+00  0.0000e+00 +/- 0.0000e+00 0.0000e+00 0.0000e+00 [bar]
 0.0000e+00  2.4180e+01  0.0000e+00 +/- 0.0000e+00 0.0000e+00 0.0000e+00 [bar]
 0.0000e+00  0.0000e+00  2.4180e+01 +/- 0.0000e+00 0.0000e+00 0.0000e+00 [bar]
Ideal-gas pressure:   2.418022e+01 +/ 0.000000e+00 [bar]
Excess pressure:      0.000000e+00 +/ 0.000000e+00 [bar]
Pressure:             2.418022e+01 +/ 0.000000e+00 [bar]

Total potential energy/kʙ  -2.889681e+03 (-2.889681e+03 +/- 0.000000e+00) [K]
-------------------------------------------------------------------------------
ExternalField-molecule
    Van der Waals/kʙ        0.000000e+00 ( 0.000000e+00 +/- 0.000000e+00) [K]
Framework-molecule
    Van der Waals/kʙ        0.000000e+00 ( 0.000000e+00 +/- 0.000000e+00) [K]
    Van der Waals (Tail)/kʙ 0.000000e+00 ( 0.000000e+00 +/- 0.000000e+00) [K]
    Coulombic Real/kʙ       0.000000e+00 ( 0.000000e+00 +/- 0.000000e+00) [K]
    Coulombic Fourier/kʙ    0.000000e+00 ( 0.000000e+00 +/- 0.000000e+00) [K]
Molecule-molecule
    Van der Waals/kʙ       -1.802230e+03 (-1.802230e+03 +/- 0.000000e+00) [K]
    Van der Waals (Tail)/kʙ-3.512663e+01 (-3.512663e+01 +/- 0.000000e+00) [K]
    Coulombic Real/kʙ      -9.489338e+02 (-9.489338e+02 +/- 0.000000e+00) [K]
    Coulombic Fourier/kʙ   -1.033898e+02 (-1.033898e+02 +/- 0.000000e+00) [K]
    Molecule Intra/kʙ       0.000000e+00 ( 0.000000e+00 +/- 0.000000e+00) [K]

Current cycle: 100 out of 6000
===============================================================================

Box:      33.81115   0.00000   0.00000  Average:  33.79929   0.00000   0.00000
           0.00000  33.81115   0.00000             0.00000  33.79929   0.00000
           0.00000   0.00000  33.81115             0.00000   0.00000  33.79929
Lengths:  33.81115  33.81115  33.81115  Average:  33.79929  33.79929  33.79929
Angles:   90.00000  90.00000  90.00000  Average:  90.00000  90.00000  90.00000
Rectangular boundary conditions

net charge:   0.00000000

component 0 (CO2) lambda:  0 occupancy:  1 (1.000000)
    net charge:   0.00000000 [e]

Amount of molecules per component :
-------------------------------------------------------------------------------
Component 0 (CO2)
    molecules:      2.600000e+01 molecules  (2.448515e+01 +/- 0.000000e+00)
    number density: 6.726567e-04 molec./A^3 (6.340651e-04 +/- 0.000000e+00)
    density:        4.914545e+01 kg/m^3     (4.632588e+01 +/- 0.000000e+00)

Average pressure tensor: 
-------------------------------------------------------------------------------
 1.4462e+01  5.0806e-02  1.0237e+00 +/- 0.0000e+00 0.0000e+00 0.0000e+00 [bar]
 5.0806e-02  1.5973e+01  3.9299e+00 +/- 0.0000e+00 0.0000e+00 0.0000e+00 [bar]
 1.0237e+00  3.9299e+00  2.0139e+01 +/- 0.0000e+00 0.0000e+00 0.0000e+00 [bar]
Ideal-gas pressure:   2.188555e+01 +/ 0.000000e+00 [bar]
Excess pressure:     -5.027581e+00 +/ 0.000000e+00 [bar]
Pressure:             1.685797e+01 +/ 0.000000e+00 [bar]

Total potential energy/kʙ  -2.435097e+03 (-2.433178e+03 +/- 0.000000e+00) [K]
-------------------------------------------------------------------------------
ExternalField-molecule
    Van der Waals/kʙ        0.000000e+00 ( 0.000000e+00 +/- 0.000000e+00) [K]
Framework-molecule
    Van der Waals/kʙ        0.000000e+00 ( 0.000000e+00 +/- 0.000000e+00) [K]
    Van der Waals (Tail)/kʙ 0.000000e+00 ( 0.000000e+00 +/- 0.000000e+00) [K]
    Coulombic Real/kʙ       0.000000e+00 ( 0.000000e+00 +/- 0.000000e+00) [K]
    Coulombic Fourier/kʙ    0.000000e+00 ( 0.000000e+00 +/- 0.000000e+00) [K]
Molecule-molecule
    Van der Waals/kʙ       -2.416371e+03 (-1.837233e+03 +/- 0.000000e+00) [K]
    Van der Waals (Tail)/kʙ-3.247903e+01 (-3.019979e+01 +/- 0.000000e+00) [K]
    Coulombic Real/kʙ      -1.087775e+01 (-5.069731e+02 +/- 0.000000e+00) [K]
    Coulombic Fourier/kʙ    2.463092e+01 (-5.877282e+01 +/- 0.000000e+00) [K]
    Molecule Intra/kʙ       0.000000e+00 ( 0.000000e+00 +/- 0.000000e+00) [K]

Current cycle: 200 out of 6000
===============================================================================

Box:      33.68642   0.00000   0.00000  Average:  33.73195   0.00000   0.00000
           0.00000  33.68642   0.00000             0.00000  33.73195   0.00000
           0.00000   0.00000  33.68642             0.00000   0.00000  33.73195
Lengths:  33.68642  33.68642  33.68642  Average:  33.73195  33.73195  33.73195
Angles:   90.00000  90.00000  90.00000  Average:  90.00000  90.00000  90.00000
Rectangular boundary conditions

net charge:   0.00000000

component 0 (CO2) lambda:  0 occupancy:  1 (1.000000)
    net charge:   0.00000000 [e]

Amount of molecules per component :
-------------------------------------------------------------------------------
Component 0 (CO2)
    molecules:      1.900000e+01 molecules  (2.084577e+01 +/- 0.000000e+00)
    number density: 4.970374e-04 molec./A^3 (5.423687e-04 +/- 0.000000e+00)
    density:        3.631440e+01 kg/m^3     (3.962638e+01 +/- 0.000000e+00)

Average pressure tensor: 
-------------------------------------------------------------------------------
 1.3378e+01  8.7026e-01  8.7968e-01 +/- 0.0000e+00 0.0000e+00 0.0000e+00 [bar]
 8.7026e-01  1.3134e+01  1.9760e+00 +/- 0.0000e+00 0.0000e+00 0.0000e+00 [bar]
 8.7968e-01  1.9760e+00  1.5662e+01 +/- 0.0000e+00 0.0000e+00 0.0000e+00 [bar]
Ideal-gas pressure:   1.872054e+01 +/ 0.000000e+00 [bar]
Excess pressure:     -4.662341e+00 +/ 0.000000e+00 [bar]
Pressure:             1.405820e+01 +/ 0.000000e+00 [bar]

Total potential energy/kʙ  -4.932797e+02 (-1.785715e+03 +/- 0.000000e+00) [K]
-------------------------------------------------------------------------------
ExternalField-molecule
    Van der Waals/kʙ        0.000000e+00 ( 0.000000e+00 +/- 0.000000e+00) [K]
Framework-molecule
    Van der Waals/kʙ        0.000000e+00 ( 0.000000e+00 +/- 0.000000e+00) [K]
    Van der Waals (Tail)/kʙ 0.000000e+00 ( 0.000000e+00 +/- 0.000000e+00) [K]
    Coulombic Real/kʙ       0.000000e+00 ( 0.000000e+00 +/- 0.000000e+00) [K]
    Coulombic Fourier/kʙ    0.000000e+00 ( 0.000000e+00 +/- 0.000000e+00) [K]
Molecule-molecule
    Van der Waals/kʙ       -5.538508e+02 (-1.377308e+03 +/- 0.000000e+00) [K]
    Van der Waals (Tail)/kʙ-1.753795e+01 (-2.278643e+01 +/- 0.000000e+00) [K]
    Coulombic Real/kʙ       6.362908e+01 (-3.370460e+02 +/- 0.000000e+00) [K]
    Coulombic Fourier/kʙ    1.447995e+01 (-4.857519e+01 +/- 0.000000e+00) [K]
    Molecule Intra/kʙ       0.000000e+00 ( 0.000000e+00 +/- 0.000000e+00) [K]

Current cycle: 300 out of 6000
===============================================================================

Box:      33.72035   0.00000   0.00000  Average:  33.72186   0.00000   0.00000
           0.00000  33.72035   0.00000             0.00000  33.72186   0.00000
           0.00000   0.00000  33.72035             0.00000   0.00000  33.72186
Lengths:  33.72035  33.72035  33.72035  Average:  33.72186  33.72186  33.72186
Angles:   90.00000  90.00000  90.00000  Average:  90.00000  90.00000  90.00000
Rectangular boundary conditions

net charge:   0.00000000

component 0 (CO2) lambda:  0 occupancy:  1 (1.000000)
    net charge:   0.00000000 [e]

Amount of molecules per component :
-------------------------------------------------------------------------------
Component 0 (CO2)
    molecules:      2.600000e+01 molecules  (2.155482e+01 +/- 0.000000e+00)
    number density: 6.781054e-04 molec./A^3 (5.616059e-04 +/- 0.000000e+00)
    density:        4.954354e+01 kg/m^3     (4.103189e+01 +/- 0.000000e+00)

Average pressure tensor: 
-------------------------------------------------------------------------------
 1.5137e+01  5.7773e-01 -1.0367e-01 +/- 0.0000e+00 0.0000e+00 0.0000e+00 [bar]
 5.7773e-01  1.4374e+01  1.0439e+00 +/- 0.0000e+00 0.0000e+00 0.0000e+00 [bar]
-1.0367e-01  1.0439e+00  1.4756e+01 +/- 0.0000e+00 0.0000e+00 0.0000e+00 [bar]
Ideal-gas pressure:   1.938453e+01 +/ 0.000000e+00 [bar]
Excess pressure:     -4.629271e+00 +/ 0.000000e+00 [bar]
Pressure:             1.475526e+01 +/ 0.000000e+00 [bar]

Total potential energy/kʙ  -1.105541e+03 (-1.894268e+03 +/- 0.000000e+00) [K]
-------------------------------------------------------------------------------
ExternalField-molecule
    Van der Waals/kʙ        0.000000e+00 ( 0.000000e+00 +/- 0.000000e+00) [K]
Framework-molecule
    Van der Waals/kʙ        0.000000e+00 ( 0.000000e+00 +/- 0.000000e+00) [K]
    Van der Waals (Tail)/kʙ 0.000000e+00 ( 0.000000e+00 +/- 0.000000e+00) [K]
    Coulombic Real/kʙ       0.000000e+00 ( 0.000000e+00 +/- 0.000000e+00) [K]
    Coulombic Fourier/kʙ    0.000000e+00 ( 0.000000e+00 +/- 0.000000e+00) [K]
Molecule-molecule
    Van der Waals/kʙ       -9.677455e+02 (-1.433541e+03 +/- 0.000000e+00) [K]
    Van der Waals (Tail)/kʙ-3.274212e+01 (-2.432633e+01 +/- 0.000000e+00) [K]
    Coulombic Real/kʙ      -4.445143e+01 (-3.781581e+02 +/- 0.000000e+00) [K]
    Coulombic Fourier/kʙ   -6.060187e+01 (-5.824332e+01 +/- 0.000000e+00) [K]
    Molecule Intra/kʙ       0.000000e+00 ( 0.000000e+00 +/- 0.000000e+00) [K]

Current cycle: 400 out of 6000
===============================================================================

Box:      33.56525   0.00000   0.00000  Average:  33.69371   0.00000   0.00000
           0.00000  33.56525   0.00000             0.00000  33.69371   0.00000
           0.00000   0.00000  33.56525             0.00000   0.00000  33.69371
Lengths:  33.56525  33.56525  33.56525  Average:  33.69371  33.69371  33.69371
Angles:   90.00000  90.00000  90.00000  Average:  90.00000  90.00000  90.00000
Rectangular boundary conditions

net charge:   0.00000000

component 0 (CO2) lambda:  0 occupancy:  1 (1.000000)
    net charge:   0.00000000 [e]

Amount of molecules per component :
-------------------------------------------------------------------------------
Component 0 (CO2)
    molecules:      1.800000e+01 molecules  (2.126683e+01 +/- 0.000000e+00)
    number density: 4.759956e-04 molec./A^3 (5.554548e-04 +/- 0.000000e+00)
    density:        3.477706e+01 kg/m^3     (4.058248e+01 +/- 0.000000e+00)

Average pressure tensor: 
-------------------------------------------------------------------------------
 1.5194e+01  7.6319e-01 -5.0278e-01 +/- 0.0000e+00 0.0000e+00 0.0000e+00 [bar]
 7.6319e-01  1.4130e+01  7.1407e-01 +/- 0.0000e+00 0.0000e+00 0.0000e+00 [bar]
-5.0278e-01  7.1407e-01  1.5179e+01 +/- 0.0000e+00 0.0000e+00 0.0000e+00 [bar]
Ideal-gas pressure:   1.917222e+01 +/ 0.000000e+00 [bar]
Excess pressure:     -4.337859e+00 +/ 0.000000e+00 [bar]
Pressure:             1.483436e+01 +/ 0.000000e+00 [bar]

Total potential energy/kʙ  -1.296246e+03 (-1.786950e+03 +/- 0.000000e+00) [K]
-------------------------------------------------------------------------------
ExternalField-molecule
    Van der Waals/kʙ        0.000000e+00 ( 0.000000e+00 +/- 0.000000e+00) [K]
Framework-molecule
    Van der Waals/kʙ        0.000000e+00 ( 0.000000e+00 +/- 0.000000e+00) [K]
    Van der Waals (Tail)/kʙ 0.000000e+00 ( 0.000000e+00 +/- 0.000000e+00) [K]
    Coulombic Real/kʙ       0.000000e+00 ( 0.000000e+00 +/- 0.000000e+00) [K]
    Coulombic Fourier/kʙ    0.000000e+00 ( 0.000000e+00 +/- 0.000000e+00) [K]
Molecule-molecule
    Van der Waals/kʙ       -8.695952e+02 (-1.353730e+03 +/- 0.000000e+00) [K]
    Van der Waals (Tail)/kʙ-1.591152e+01 (-2.311013e+01 +/- 0.000000e+00) [K]
    Coulombic Real/kʙ      -3.282521e+02 (-3.545272e+02 +/- 0.000000e+00) [K]
    Coulombic Fourier/kʙ   -8.248695e+01 (-5.558259e+01 +/- 0.000000e+00) [K]
    Molecule Intra/kʙ       0.000000e+00 ( 0.000000e+00 +/- 0.000000e+00) [K]

Current cycle: 500 out of 6000
===============================================================================

Box:      33.67817   0.00000   0.00000  Average:  33.68585   0.00000   0.00000
           0.00000  33.67817   0.00000             0.00000  33.68585   0.00000
           0.00000   0.00000  33.67817             0.00000   0.00000  33.68585
Lengths:  33.67817  33.67817  33.67817  Average:  33.68585  33.68585  33.68585
Angles:   90.00000  90.00000  90.00000  Average:  90.00000  90.00000  90.00000
Rectangular boundary conditions

net charge:   0.00000000

component 0 (CO2) lambda:  0 occupancy:  1 (1.000000)
    net charge:   0.00000000 [e]

Amount of molecules per component :
-------------------------------------------------------------------------------
Component 0 (CO2)
    molecules:      2.500000e+01 molecules  (2.217964e+01 +/- 0.000000e+00)
    number density: 6.544771e-04 molec./A^3 (5.798664e-04 +/- 0.000000e+00)
    density:        4.781721e+01 kg/m^3     (4.236603e+01 +/- 0.000000e+00)

Average pressure tensor: 
-------------------------------------------------------------------------------
 1.6384e+01  1.1103e+00 -6.9740e-01 +/- 0.0000e+00 0.0000e+00 0.0000e+00 [bar]
 1.1103e+00  1.6196e+01  7.4201e-01 +/- 0.0000e+00 0.0000e+00 0.0000e+00 [bar]
-6.9740e-01  7.4201e-01  1.5916e+01 +/- 0.0000e+00 0.0000e+00 0.0000e+00 [bar]
Ideal-gas pressure:   2.001482e+01 +/ 0.000000e+00 [bar]
Excess pressure:     -3.849122e+00 +/ 0.000000e+00 [bar]
Pressure:             1.616570e+01 +/ 0.000000e+00 [bar]

Total potential energy/kʙ  -1.996130e+03 (-1.882738e+03 +/- 0.000000e+00) [K]
-------------------------------------------------------------------------------
ExternalField-molecule
    Van der Waals/kʙ        0.000000e+00 ( 0.000000e+00 +/- 0.000000e+00) [K]
Framework-molecule
    Van der Waals/kʙ        0.000000e+00 ( 0.000000e+00 +/- 0.000000e+00) [K]
    Van der Waals (Tail)/kʙ 0.000000e+00 ( 0.000000e+00 +/- 0.000000e+00) [K]
    Coulombic Real/kʙ       0.000000e+00 ( 0.000000e+00 +/- 0.000000e+00) [K]
    Coulombic Fourier/kʙ    0.000000e+00 ( 0.000000e+00 +/- 0.000000e+00) [K]
Molecule-molecule
    Van der Waals/kʙ       -1.375191e+03 (-1.391275e+03 +/- 0.000000e+00) [K]
    Van der Waals (Tail)/kʙ-3.038580e+01 (-2.480997e+01 +/- 0.000000e+00) [K]
    Coulombic Real/kʙ      -5.467169e+02 (-4.098358e+02 +/- 0.000000e+00) [K]
    Coulombic Fourier/kʙ   -4.383620e+01 (-5.681663e+01 +/- 0.000000e+00) [K]
    Molecule Intra/kʙ       0.000000e+00 ( 0.000000e+00 +/- 0.000000e+00) [K]

Current cycle: 600 out of 6000
===============================================================================

Box:      33.90926   0.00000   0.00000  Average:  33.70767   0.00000   0.00000
           0.00000  33.90926   0.00000             0.00000  33.70767   0.00000
           0.00000   0.00000  33.90926             0.00000   0.00000  33.70767
Lengths:  33.90926  33.90926  33.90926  Average:  33.70767  33.70767  33.70767
Angles:   90.00000  90.00000  90.00000  Average:  90.00000  90.00000  90.00000
Rectangular boundary conditions

net charge:   0.00000000

component 0 (CO2) lambda:  0 occupancy:  1 (1.000000)
    net charge:   0.00000000 [e]

Amount of molecules per component :
-------------------------------------------------------------------------------
Component 0 (CO2)
    molecules:      3.000000e+01 molecules  (2.279700e+01 +/- 0.000000e+00)
    number density: 7.694250e-04 molec./A^3 (5.947878e-04 +/- 0.000000e+00)
    density:        5.621551e+01 kg/m^3     (4.345622e+01 +/- 0.000000e+00)

Average pressure tensor: 
-------------------------------------------------------------------------------
 1.6611e+01  8.5354e-01 -3.6624e-02 +/- 0.0000e+00 0.0000e+00 0.0000e+00 [bar]
 8.5354e-01  1.6943e+01  1.9423e-01 +/- 0.0000e+00 0.0000e+00 0.0000e+00 [bar]
-3.6624e-02  1.9423e-01  1.7196e+01 +/- 0.0000e+00 0.0000e+00 0.0000e+00 [bar]
Ideal-gas pressure:   2.052985e+01 +/ 0.000000e+00 [bar]
Excess pressure:     -3.613343e+00 +/ 0.000000e+00 [bar]
Pressure:             1.691651e+01 +/ 0.000000e+00 [bar]

Total potential energy/kʙ  -3.605531e+03 (-1.998451e+03 +/- 0.000000e+00) [K]
-------------------------------------------------------------------------------
ExternalField-molecule
    Van der Waals/kʙ        0.000000e+00 ( 0.000000e+00 +/- 0.000000e+00) [K]
Framework-molecule
    Van der Waals/kʙ        0.000000e+00 ( 0.000000e+00 +/- 0.000000e+00) [K]
    Van der Waals (Tail)/kʙ 0.000000e+00 ( 0.000000e+00 +/- 0.000000e+00) [K]
    Coulombic Real/kʙ       0.000000e+00 ( 0.000000e+00 +/- 0.000000e+00) [K]
    Coulombic Fourier/kʙ    0.000000e+00 ( 0.000000e+00 +/- 0.000000e+00) [K]
Molecule-molecule
    Van der Waals/kʙ       -2.690650e+03 (-1.461817e+03 +/- 0.000000e+00) [K]
    Van der Waals (Tail)/kʙ-4.286707e+01 (-2.630856e+01 +/- 0.000000e+00) [K]
    Coulombic Real/kʙ      -8.783270e+02 (-4.610287e+02 +/- 0.000000e+00) [K]
    Coulombic Fourier/kʙ    6.313574e+00 (-4.929637e+01 +/- 0.000000e+00) [K]
    Molecule Intra/kʙ       0.000000e+00 ( 0.000000e+00 +/- 0.000000e+00) [K]

Current cycle: 700 out of 6000
===============================================================================

Box:      33.74608   0.00000   0.00000  Average:  33.73300   0.00000   0.00000
           0.00000  33.74608   0.00000             0.00000  33.73300   0.00000
           0.00000   0.00000  33.74608             0.00000   0.00000  33.73300
Lengths:  33.74608  33.74608  33.74608  Average:  33.73300  33.73300  33.73300
Angles:   90.00000  90.00000  90.00000  Average:  90.00000  90.00000  90.00000
Rectangular boundary conditions

net charge:   0.00000000

component 0 (CO2) lambda:  0 occupancy:  1 (1.000000)
    net charge:   0.00000000 [e]

Amount of molecules per component :
-------------------------------------------------------------------------------
Component 0 (CO2)
    molecules:      2.300000e+01 molecules  (2.393581e+01 +/- 0.000000e+00)
    number density: 5.984912e-04 molec./A^3 (6.227476e-04 +/- 0.000000e+00)
    density:        4.372679e+01 kg/m^3     (4.549900e+01 +/- 0.000000e+00)

Average pressure tensor: 
-------------------------------------------------------------------------------
 1.6582e+01  1.0560e+00 -4.7159e-01 +/- 0.0000e+00 0.0000e+00 0.0000e+00 [bar]
 1.0560e+00  1.6906e+01  2.0649e-01 +/- 0.0000e+00 0.0000e+00 0.0000e+00 [bar]
-4.7159e-01  2.0649e-01  1.8673e+01 +/- 0.0000e+00 0.0000e+00 0.0000e+00 [bar]
Ideal-gas pressure:   2.149492e+01 +/ 0.000000e+00 [bar]
Excess pressure:     -4.108277e+00 +/ 0.000000e+00 [bar]
Pressure:             1.738664e+01 +/ 0.000000e+00 [bar]

Total potential energy/kʙ  -1.041751e+03 (-2.292096e+03 +/- 0.000000e+00) [K]
-------------------------------------------------------------------------------
ExternalField-molecule
    Van der Waals/kʙ        0.000000e+00 ( 0.000000e+00 +/- 0.000000e+00) [K]
Framework-molecule
    Van der Waals/kʙ        0.000000e+00 ( 0.000000e+00 +/- 0.000000e+00) [K]
    Van der Waals (Tail)/kʙ 0.000000e+00 ( 0.000000e+00 +/- 0.000000e+00) [K]
    Coulombic Real/kʙ       0.000000e+00 ( 0.000000e+00 +/- 0.000000e+00) [K]
    Coulombic Fourier/kʙ    0.000000e+00 ( 0.000000e+00 +/- 0.000000e+00) [K]
Molecule-molecule
    Van der Waals/kʙ       -1.144521e+03 (-1.677906e+03 +/- 0.000000e+00) [K]
    Van der Waals (Tail)/kʙ-2.556359e+01 (-2.889461e+01 +/- 0.000000e+00) [K]
    Coulombic Real/kʙ       2.658508e+02 (-5.315362e+02 +/- 0.000000e+00) [K]
    Coulombic Fourier/kʙ   -1.375173e+02 (-5.375912e+01 +/- 0.000000e+00) [K]
    Molecule Intra/kʙ       0.000000e+00 ( 0.000000e+00 +/- 0.000000e+00) [K]

Current cycle: 800 out of 6000
===============================================================================

Box:      33.73319   0.00000   0.00000  Average:  33.73787   0.00000   0.00000
           0.00000  33.73319   0.00000             0.00000  33.73787   0.00000
           0.00000   0.00000  33.73319             0.00000   0.00000  33.73787
Lengths:  33.73319  33.73319  33.73319  Average:  33.73787  33.73787  33.73787
Angles:   90.00000  90.00000  90.00000  Average:  90.00000  90.00000  90.00000
Rectangular boundary conditions

net charge:   0.00000000

component 0 (CO2) lambda:  0 occupancy:  1 (1.000000)
    net charge:   0.00000000 [e]

Amount of molecules per component :
-------------------------------------------------------------------------------
Component 0 (CO2)
    molecules:      1.800000e+01 molecules  (2.387266e+01 +/- 0.000000e+00)
    number density: 4.689218e-04 molec./A^3 (6.209276e-04 +/- 0.000000e+00)
    density:        3.426023e+01 kg/m^3     (4.536603e+01 +/- 0.000000e+00)

Average pressure tensor: 
-------------------------------------------------------------------------------
 1.6018e+01  9.9632e-01 -3.4322e-01 +/- 0.0000e+00 0.0000e+00 0.0000e+00 [bar]
 9.9632e-01  1.6850e+01  1.6905e-02 +/- 0.0000e+00 0.0000e+00 0.0000e+00 [bar]
-3.4322e-01  1.6905e-02  1.8273e+01 +/- 0.0000e+00 0.0000e+00 0.0000e+00 [bar]
Ideal-gas pressure:   2.143210e+01 +/ 0.000000e+00 [bar]
Excess pressure:     -4.384861e+00 +/ 0.000000e+00 [bar]
Pressure:             1.704724e+01 +/ 0.000000e+00 [bar]

Total potential energy/kʙ  -7.025992e+02 (-2.274977e+03 +/- 0.000000e+00) [K]
-------------------------------------------------------------------------------
ExternalField-molecule
    Van der Waals/kʙ        0.000000e+00 ( 0.000000e+00 +/- 0.000000e+00) [K]
Framework-molecule
    Van der Waals/kʙ        0.000000e+00 ( 0.000000e+00 +/- 0.000000e+00) [K]
    Van der Waals (Tail)/kʙ 0.000000e+00 ( 0.000000e+00 +/- 0.000000e+00) [K]
    Coulombic Real/kʙ       0.000000e+00 ( 0.000000e+00 +/- 0.000000e+00) [K]
    Coulombic Fourier/kʙ    0.000000e+00 ( 0.000000e+00 +/- 0.000000e+00) [K]
Molecule-molecule
    Van der Waals/kʙ       -2.556858e+02 (-1.649724e+03 +/- 0.000000e+00) [K]
    Van der Waals (Tail)/kʙ-1.567506e+01 (-2.845044e+01 +/- 0.000000e+00) [K]
    Coulombic Real/kʙ      -3.799427e+02 (-5.414496e+02 +/- 0.000000e+00) [K]
    Coulombic Fourier/kʙ   -5.129557e+01 (-5.535255e+01 +/- 0.000000e+00) [K]
    Molecule Intra/kʙ       0.000000e+00 ( 0.000000e+00 +/- 0.000000e+00) [K]

Current cycle: 900 out of 6000
===============================================================================

Box:      33.71189   0.00000   0.00000  Average:  33.73530   0.00000   0.00000
           0.00000  33.71189   0.00000             0.00000  33.73530   0.00000
           0.00000   0.00000  33.71189             0.00000   0.00000  33.73530
Lengths:  33.71189  33.71189  33.71189  Average:  33.73530  33.73530  33.73530
Angles:   90.00000  90.00000  90.00000  Average:  90.00000  90.00000  90.00000
Rectangular boundary conditions

net charge:   0.00000000

component 0 (CO2) lambda:  0 occupancy:  1 (1.000000)
    net charge:   0.00000000 [e]

Amount of molecules per component :
-------------------------------------------------------------------------------
Component 0 (CO2)
    molecules:      2.900000e+01 molecules  (2.401332e+01 +/- 0.000000e+00)
    number density: 7.569176e-04 molec./A^3 (6.248136e-04 +/- 0.000000e+00)
    density:        5.530170e+01 kg/m^3     (4.564995e+01 +/- 0.000000e+00)

Average pressure tensor: 
-------------------------------------------------------------------------------
 1.6286e+01  1.2699e+00 -1.3078e-01 +/- 0.0000e+00 0.0000e+00 0.0000e+00 [bar]
 1.2699e+00  1.7722e+01 -1.4422e-01 +/- 0.0000e+00 0.0000e+00 0.0000e+00 [bar]
-1.3078e-01 -1.4422e-01  1.8822e+01 +/- 0.0000e+00 0.0000e+00 0.0000e+00 [bar]
Ideal-gas pressure:   2.156623e+01 +/ 0.000000e+00 [bar]
Excess pressure:     -3.956510e+00 +/ 0.000000e+00 [bar]
Pressure:             1.760972e+01 +/ 0.000000e+00 [bar]

Total potential energy/kʙ  -2.882947e+03 (-2.309929e+03 +/- 0.000000e+00) [K]
-------------------------------------------------------------------------------
ExternalField-molecule
    Van der Waals/kʙ        0.000000e+00 ( 0.000000e+00 +/- 0.000000e+00) [K]
Framework-molecule
    Van der Waals/kʙ        0.000000e+00 ( 0.000000e+00 +/- 0.000000e+00) [K]
    Van der Waals (Tail)/kʙ 0.000000e+00 ( 0.000000e+00 +/- 0.000000e+00) [K]
    Coulombic Real/kʙ       0.000000e+00 ( 0.000000e+00 +/- 0.000000e+00) [K]
    Coulombic Fourier/kʙ    0.000000e+00 ( 0.000000e+00 +/- 0.000000e+00) [K]
Molecule-molecule
    Van der Waals/kʙ       -2.087514e+03 (-1.662103e+03 +/- 0.000000e+00) [K]
    Van der Waals (Tail)/kʙ-4.076457e+01 (-2.899904e+01 +/- 0.000000e+00) [K]
    Coulombic Real/kʙ      -6.071638e+02 (-5.613115e+02 +/- 0.000000e+00) [K]
    Coulombic Fourier/kʙ   -1.475047e+02 (-5.751558e+01 +/- 0.000000e+00) [K]
    Molecule Intra/kʙ       0.000000e+00 ( 0.000000e+00 +/- 0.000000e+00) [K]

Current cycle: 1000 out of 6000
===============================================================================

Box:      33.81900   0.00000   0.00000  Average:  33.73836   0.00000   0.00000
           0.00000  33.81900   0.00000             0.00000  33.73836   0.00000
           0.00000   0.00000  33.81900             0.00000   0.00000  33.73836
Lengths:  33.81900  33.81900  33.81900  Average:  33.73836  33.73836  33.73836
Angles:   90.00000  90.00000  90.00000  Average:  90.00000  90.00000  90.00000
Rectangular boundary conditions

net charge:   0.00000000

component 0 (CO2) lambda:  0 occupancy:  1 (1.000000)
    net charge:   0.00000000 [e]

Amount of molecules per component :
-------------------------------------------------------------------------------
Component 0 (CO2)
    molecules:      2.400000e+01 molecules  (2.414186e+01 +/- 0.000000e+00)
    number density: 6.204818e-04 molec./A^3 (6.280596e-04 +/- 0.000000e+00)
    density:        4.533346e+01 kg/m^3     (4.588711e+01 +/- 0.000000e+00)

Average pressure tensor: 
-------------------------------------------------------------------------------
 1.7350e+01  9.5747e-01 -2.5279e-01 +/- 0.0000e+00 0.0000e+00 0.0000e+00 [bar]
 9.5747e-01  1.8229e+01  6.1121e-02 +/- 0.0000e+00 0.0000e+00 0.0000e+00 [bar]
-2.5279e-01  6.1121e-02  1.8877e+01 +/- 0.0000e+00 0.0000e+00 0.0000e+00 [bar]
Ideal-gas pressure:   2.167827e+01 +/ 0.000000e+00 [bar]
Excess pressure:     -3.526022e+00 +/ 0.000000e+00 [bar]
Pressure:             1.815224e+01 +/ 0.000000e+00 [bar]

Total potential energy/kʙ  -2.034233e+03 (-2.316123e+03 +/- 0.000000e+00) [K]
-------------------------------------------------------------------------------
ExternalField-molecule
    Van der Waals/kʙ        0.000000e+00 ( 0.000000e+00 +/- 0.000000e+00) [K]
Framework-molecule
    Van der Waals/kʙ        0.000000e+00 ( 0.000000e+00 +/- 0.000000e+00) [K]
    Van der Waals (Tail)/kʙ 0.000000e+00 ( 0.000000e+00 +/- 0.000000e+00) [K]
    Coulombic Real/kʙ       0.000000e+00 ( 0.000000e+00 +/- 0.000000e+00) [K]
    Coulombic Fourier/kʙ    0.000000e+00 ( 0.000000e+00 +/- 0.000000e+00) [K]
Molecule-molecule
    Van der Waals/kʙ       -1.164184e+03 (-1.655368e+03 +/- 0.000000e+00) [K]
    Van der Waals (Tail)/kʙ-2.765518e+01 (-2.905267e+01 +/- 0.000000e+00) [K]
    Coulombic Real/kʙ      -7.010080e+02 (-5.730936e+02 +/- 0.000000e+00) [K]
    Coulombic Fourier/kʙ   -1.413858e+02 (-5.860808e+01 +/- 0.000000e+00) [K]
    Molecule Intra/kʙ       0.000000e+00 ( 0.000000e+00 +/- 0.000000e+00) [K]

Current cycle: 1100 out of 6000
===============================================================================

Box:      33.83217   0.00000   0.00000  Average:  33.74322   0.00000   0.00000
           0.00000  33.83217   0.00000             0.00000  33.74322   0.00000
           0.00000   0.00000  33.83217             0.00000   0.00000  33.74322
Lengths:  33.83217  33.83217  33.83217  Average:  33.74322  33.74322  33.74322
Angles:   90.00000  90.00000  90.00000  Average:  90.00000  90.00000  90.00000
Rectangular boundary conditions

net charge:   0.00000000

component 0 (CO2) lambda:  0 occupancy:  1 (1.000000)
    net charge:   0.00000000 [e]

Amount of molecules per component :
-------------------------------------------------------------------------------
Component 0 (CO2)
    molecules:      2.500000e+01 molecules  (2.438692e+01 +/- 0.000000e+00)
    number density: 6.455804e-04 molec./A^3 (6.341851e-04 +/- 0.000000e+00)
    density:        4.716721e+01 kg/m^3     (4.633465e+01 +/- 0.000000e+00)

Average pressure tensor: 
-------------------------------------------------------------------------------
 1.8408e+01  7.9328e-01 -9.6849e-02 +/- 0.0000e+00 0.0000e+00 0.0000e+00 [bar]
 7.9328e-01  1.8643e+01  6.6072e-02 +/- 0.0000e+00 0.0000e+00 0.0000e+00 [bar]
-9.6849e-02  6.6072e-02  1.9369e+01 +/- 0.0000e+00 0.0000e+00 0.0000e+00 [bar]
Ideal-gas pressure:   2.188970e+01 +/ 0.000000e+00 [bar]
Excess pressure:     -3.082999e+00 +/ 0.000000e+00 [bar]
Pressure:             1.880670e+01 +/ 0.000000e+00 [bar]

Total potential energy/kʙ  -1.314698e+03 (-2.357171e+03 +/- 0.000000e+00) [K]
-------------------------------------------------------------------------------
ExternalField-molecule
    Van der Waals/kʙ        0.000000e+00 ( 0.000000e+00 +/- 0.000000e+00) [K]
Framework-molecule
    Van der Waals/kʙ        0.000000e+00 ( 0.000000e+00 +/- 0.000000e+00) [K]
    Van der Waals (Tail)/kʙ 0.000000e+00 ( 0.000000e+00 +/- 0.000000e+00) [K]
    Coulombic Real/kʙ       0.000000e+00 ( 0.000000e+00 +/- 0.000000e+00) [K]
    Coulombic Fourier/kʙ    0.000000e+00 ( 0.000000e+00 +/- 0.000000e+00) [K]
Molecule-molecule
    Van der Waals/kʙ       -1.265987e+03 (-1.698490e+03 +/- 0.000000e+00) [K]
    Van der Waals (Tail)/kʙ-2.997275e+01 (-2.980245e+01 +/- 0.000000e+00) [K]
    Coulombic Real/kʙ       6.009039e+00 (-5.718317e+02 +/- 0.000000e+00) [K]
    Coulombic Fourier/kʙ   -2.474748e+01 (-5.704702e+01 +/- 0.000000e+00) [K]
    Molecule Intra/kʙ       0.000000e+00 ( 0.000000e+00 +/- 0.000000e+00) [K]

Current cycle: 1200 out of 6000
===============================================================================

Box:      33.73675   0.00000   0.00000  Average:  33.74265   0.00000   0.00000
           0.00000  33.73675   0.00000             0.00000  33.74265   0.00000
           0.00000   0.00000  33.73675             0.00000   0.00000  33.74265
Lengths:  33.73675  33.73675  33.73675  Average:  33.74265  33.74265  33.74265
Angles:   90.00000  90.00000  90.00000  Average:  90.00000  90.00000  90.00000
Rectangular boundary conditions

net charge:   0.00000000

component 0 (CO2) lambda:  0 occupancy:  1 (1.000000)
    net charge:   0.00000000 [e]

Amount of molecules per component :
-------------------------------------------------------------------------------
Component 0 (CO2)
    molecules:      2.700000e+01 molecules  (2.442798e+01 +/- 0.000000e+00)
    number density: 7.031598e-04 molec./A^3 (6.353238e-04 +/- 0.000000e+00)
    density:        5.137406e+01 kg/m^3     (4.641785e+01 +/- 0.000000e+00)

Average pressure tensor: 
-------------------------------------------------------------------------------
 1.8237e+01  6.7551e-01  1.0188e-01 +/- 0.0000e+00 0.0000e+00 0.0000e+00 [bar]
 6.7551e-01  1.8496e+01 -3.9745e-02 +/- 0.0000e+00 0.0000e+00 0.0000e+00 [bar]
 1.0188e-01 -3.9745e-02  1.9385e+01 +/- 0.0000e+00 0.0000e+00 0.0000e+00 [bar]
Ideal-gas pressure:   2.192900e+01 +/ 0.000000e+00 [bar]
Excess pressure:     -3.223106e+00 +/ 0.000000e+00 [bar]
Pressure:             1.870589e+01 +/ 0.000000e+00 [bar]

Total potential energy/kʙ  -3.749723e+03 (-2.392230e+03 +/- 0.000000e+00) [K]
-------------------------------------------------------------------------------
ExternalField-molecule
    Van der Waals/kʙ        0.000000e+00 ( 0.000000e+00 +/- 0.000000e+00) [K]
Framework-molecule
    Van der Waals/kʙ        0.000000e+00 ( 0.000000e+00 +/- 0.000000e+00) [K]
    Van der Waals (Tail)/kʙ 0.000000e+00 ( 0.000000e+00 +/- 0.000000e+00) [K]
    Coulombic Real/kʙ       0.000000e+00 ( 0.000000e+00 +/- 0.000000e+00) [K]
    Coulombic Fourier/kʙ    0.000000e+00 ( 0.000000e+00 +/- 0.000000e+00) [K]
Molecule-molecule
    Van der Waals/kʙ       -2.893100e+03 (-1.724528e+03 +/- 0.000000e+00) [K]
    Van der Waals (Tail)/kʙ-3.525770e+01 (-2.974069e+01 +/- 0.000000e+00) [K]
    Coulombic Real/kʙ      -7.058158e+02 (-5.839295e+02 +/- 0.000000e+00) [K]
    Coulombic Fourier/kʙ   -1.155485e+02 (-5.403175e+01 +/- 0.000000e+00) [K]
    Molecule Intra/kʙ       0.000000e+00 ( 0.000000e+00 +/- 0.000000e+00) [K]

Current cycle: 1300 out of 6000
===============================================================================

Box:      33.51008   0.00000   0.00000  Average:  33.73278   0.00000   0.00000
           0.00000  33.51008   0.00000             0.00000  33.73278   0.00000
           0.00000   0.00000  33.51008             0.00000   0.00000  33.73278
Lengths:  33.51008  33.51008  33.51008  Average:  33.73278  33.73278  33.73278
Angles:   90.00000  90.00000  90.00000  Average:  90.00000  90.00000  90.00000
Rectangular boundary conditions

net charge:   0.00000000

component 0 (CO2) lambda:  0 occupancy:  1 (1.000000)
    net charge:   0.00000000 [e]

Amount of molecules per component :
-------------------------------------------------------------------------------
Component 0 (CO2)
    molecules:      1.400000e+01 molecules  (2.416603e+01 +/- 0.000000e+00)
    number density: 3.720503e-04 molec./A^3 (6.289810e-04 +/- 0.000000e+00)
    density:        2.718263e+01 kg/m^3     (4.595443e+01 +/- 0.000000e+00)

Average pressure tensor: 
-------------------------------------------------------------------------------
 1.7935e+01  6.9344e-01 -8.7235e-02 +/- 0.0000e+00 0.0000e+00 0.0000e+00 [bar]
 6.9344e-01  1.8276e+01 -8.5516e-02 +/- 0.0000e+00 0.0000e+00 0.0000e+00 [bar]
-8.7235e-02 -8.5516e-02  1.8917e+01 +/- 0.0000e+00 0.0000e+00 0.0000e+00 [bar]
Ideal-gas pressure:   2.171007e+01 +/ 0.000000e+00 [bar]
Excess pressure:     -3.334099e+00 +/ 0.000000e+00 [bar]
Pressure:             1.837597e+01 +/ 0.000000e+00 [bar]

Total potential energy/kʙ  -5.364510e+02 (-2.349947e+03 +/- 0.000000e+00) [K]
-------------------------------------------------------------------------------
ExternalField-molecule
    Van der Waals/kʙ        0.000000e+00 ( 0.000000e+00 +/- 0.000000e+00) [K]
Framework-molecule
    Van der Waals/kʙ        0.000000e+00 ( 0.000000e+00 +/- 0.000000e+00) [K]
    Van der Waals (Tail)/kʙ 0.000000e+00 ( 0.000000e+00 +/- 0.000000e+00) [K]
    Coulombic Real/kʙ       0.000000e+00 ( 0.000000e+00 +/- 0.000000e+00) [K]
    Coulombic Fourier/kʙ    0.000000e+00 ( 0.000000e+00 +/- 0.000000e+00) [K]
Molecule-molecule
    Van der Waals/kʙ       -6.026658e+02 (-1.702541e+03 +/- 0.000000e+00) [K]
    Van der Waals (Tail)/kʙ-9.673105e+00 (-2.933585e+01 +/- 0.000000e+00) [K]
    Coulombic Real/kʙ       9.831692e+01 (-5.666320e+02 +/- 0.000000e+00) [K]
    Coulombic Fourier/kʙ   -2.242901e+01 (-5.143838e+01 +/- 0.000000e+00) [K]
    Molecule Intra/kʙ       0.000000e+00 ( 0.000000e+00 +/- 0.000000e+00) [K]

Current cycle: 1400 out of 6000
===============================================================================

Box:      33.51821   0.00000   0.00000  Average:  33.71738   0.00000   0.00000
           0.00000  33.51821   0.00000             0.00000  33.71738   0.00000
           0.00000   0.00000  33.51821             0.00000   0.00000  33.71738
Lengths:  33.51821  33.51821  33.51821  Average:  33.71738  33.71738  33.71738
Angles:   90.00000  90.00000  90.00000  Average:  90.00000  90.00000  90.00000
Rectangular boundary conditions

net charge:   0.00000000

component 0 (CO2) lambda:  0 occupancy:  1 (1.000000)
    net charge:   0.00000000 [e]

Amount of molecules per component :
-------------------------------------------------------------------------------
Component 0 (CO2)
    molecules:      1.600000e+01 molecules  (2.374518e+01 +/- 0.000000e+00)
    number density: 4.248910e-04 molec./A^3 (6.187150e-04 +/- 0.000000e+00)
    density:        3.104326e+01 kg/m^3     (4.520438e+01 +/- 0.000000e+00)

Average pressure tensor: 
-------------------------------------------------------------------------------
 1.7666e+01  6.2129e-01  3.5673e-02 +/- 0.0000e+00 0.0000e+00 0.0000e+00 [bar]
 6.2129e-01  1.7956e+01  4.9245e-02 +/- 0.0000e+00 0.0000e+00 0.0000e+00 [bar]
 3.5673e-02  4.9245e-02  1.8589e+01 +/- 0.0000e+00 0.0000e+00 0.0000e+00 [bar]
Ideal-gas pressure:   2.135573e+01 +/ 0.000000e+00 [bar]
Excess pressure:     -3.285158e+00 +/ 0.000000e+00 [bar]
Pressure:             1.807057e+01 +/ 0.000000e+00 [bar]

Total potential energy/kʙ  -7.624756e+02 (-2.259446e+03 +/- 0.000000e+00) [K]
-------------------------------------------------------------------------------
ExternalField-molecule
    Van der Waals/kʙ        0.000000e+00 ( 0.000000e+00 +/- 0.000000e+00) [K]
Framework-molecule
    Van der Waals/kʙ        0.000000e+00 ( 0.000000e+00 +/- 0.000000e+00) [K]
    Van der Waals (Tail)/kʙ 0.000000e+00 ( 0.000000e+00 +/- 0.000000e+00) [K]
    Coulombic Real/kʙ       0.000000e+00 ( 0.000000e+00 +/- 0.000000e+00) [K]
    Coulombic Fourier/kʙ    0.000000e+00 ( 0.000000e+00 +/- 0.000000e+00) [K]
Molecule-molecule
    Van der Waals/kʙ       -6.766596e+02 (-1.638025e+03 +/- 0.000000e+00) [K]
    Van der Waals (Tail)/kʙ-1.262507e+01 (-2.835428e+01 +/- 0.000000e+00) [K]
    Coulombic Real/kʙ      -5.632671e+01 (-5.438118e+02 +/- 0.000000e+00) [K]
    Coulombic Fourier/kʙ   -1.686424e+01 (-4.925517e+01 +/- 0.000000e+00) [K]
    Molecule Intra/kʙ       0.000000e+00 ( 0.000000e+00 +/- 0.000000e+00) [K]

Current cycle: 1500 out of 6000
===============================================================================

Box:      33.39516   0.00000   0.00000  Average:  33.69681   0.00000   0.00000
           0.00000  33.39516   0.00000             0.00000  33.69681   0.00000
           0.00000   0.00000  33.39516             0.00000   0.00000  33.69681
[...]
    number density: 6.046284e-04 molec./A^3 (5.671306e-04 +/- 7.373330e-05)
    density:        4.417518e+01 kg/m^3     (4.143553e+01 +/- 5.387081e+00)

Average pressure tensor: 
-------------------------------------------------------------------------------
 1.6895e+01  2.0085e-01 -1.0098e-01 +/- 2.1034e+00 6.0188e-01 4.6941e-01 [bar]
 2.0085e-01  1.6919e+01 -2.8617e-01 +/- 6.0188e-01 2.1021e+00 9.0742e-01 [bar]
-1.0098e-01 -2.8617e-01  1.7203e+01 +/- 4.6941e-01 9.0742e-01 2.1751e+00 [bar]
Ideal-gas pressure:   1.957523e+01 +/ 2.544997e+00 [bar]
Excess pressure:     -2.569530e+00 +/ 7.812592e-01 [bar]
Pressure:             1.700570e+01 +/ 1.997507e+00 [bar]

Total potential energy/kʙ  -3.189735e+03 (-1.874393e+03 +/- 5.189885e+02) [K]
-------------------------------------------------------------------------------
ExternalField-molecule
    Van der Waals/kʙ        0.000000e+00 ( 0.000000e+00 +/- 0.000000e+00) [K]
Framework-molecule
    Van der Waals/kʙ        0.000000e+00 ( 0.000000e+00 +/- 0.000000e+00) [K]
    Van der Waals (Tail)/kʙ 0.000000e+00 ( 0.000000e+00 +/- 0.000000e+00) [K]
    Coulombic Real/kʙ       0.000000e+00 ( 0.000000e+00 +/- 0.000000e+00) [K]
    Coulombic Fourier/kʙ    0.000000e+00 ( 0.000000e+00 +/- 0.000000e+00) [K]
Molecule-molecule
    Van der Waals/kʙ       -2.165562e+03 (-1.360438e+03 +/- 3.720465e+02) [K]
    Van der Waals (Tail)/kʙ-2.582573e+01 (-2.387289e+01 +/- 6.152558e+00) [K]
    Coulombic Real/kʙ      -9.255578e+02 (-4.466986e+02 +/- 1.349008e+02) [K]
    Coulombic Fourier/kʙ   -7.278944e+01 (-4.338358e+01 +/- 8.842624e+00) [K]
    Molecule Intra/kʙ       0.000000e+00 ( 0.000000e+00 +/- 0.000000e+00) [K]

Current cycle: 5800 out of 6000
===============================================================================

Box:      33.50622   0.00000   0.00000  Average:  33.60766   0.00000   0.00000
           0.00000  33.50622   0.00000             0.00000  33.60766   0.00000
           0.00000   0.00000  33.50622             0.00000   0.00000  33.60766
Lengths:  33.50622  33.50622  33.50622  Average:  33.60766  33.60766  33.60766
Angles:   90.00000  90.00000  90.00000  Average:  90.00000  90.00000  90.00000
Rectangular boundary conditions

net charge:   0.00000000

component 0 (CO2) lambda:  0 occupancy:  1 (1.000000)
    net charge:   0.00000000 [e]

Amount of molecules per component :
-------------------------------------------------------------------------------
Component 0 (CO2)
    molecules:      2.200000e+01 molecules  (2.152818e+01 +/- 2.988104e+00)
    number density: 5.848527e-04 molec./A^3 (5.661540e-04 +/- 7.310687e-05)
    density:        4.273034e+01 kg/m^3     (4.136418e+01 +/- 5.341313e+00)

Average pressure tensor: 
-------------------------------------------------------------------------------
 1.6788e+01  2.0096e-01 -1.0377e-01 +/- 2.2568e+00 5.7388e-01 4.6971e-01 [bar]
 2.0096e-01  1.6835e+01 -3.0325e-01 +/- 5.7388e-01 2.1466e+00 9.0543e-01 [bar]
-1.0377e-01 -3.0325e-01  1.7076e+01 +/- 4.6971e-01 9.0543e-01 2.3603e+00 [bar]
Ideal-gas pressure:   1.954152e+01 +/ 2.523376e+00 [bar]
Excess pressure:     -2.642037e+00 +/ 5.437285e-01 [bar]
Pressure:             1.689948e+01 +/ 2.133809e+00 [bar]

Total potential energy/kʙ  -2.714631e+03 (-1.871847e+03 +/- 5.093393e+02) [K]
-------------------------------------------------------------------------------
ExternalField-molecule
    Van der Waals/kʙ        0.000000e+00 ( 0.000000e+00 +/- 0.000000e+00) [K]
Framework-molecule
    Van der Waals/kʙ        0.000000e+00 ( 0.000000e+00 +/- 0.000000e+00) [K]
    Van der Waals (Tail)/kʙ 0.000000e+00 ( 0.000000e+00 +/- 0.000000e+00) [K]
    Coulombic Real/kʙ       0.000000e+00 ( 0.000000e+00 +/- 0.000000e+00) [K]
    Coulombic Fourier/kʙ    0.000000e+00 ( 0.000000e+00 +/- 0.000000e+00) [K]
Molecule-molecule
    Van der Waals/kʙ       -1.826480e+03 (-1.358480e+03 +/- 3.641211e+02) [K]
    Van der Waals (Tail)/kʙ-2.389491e+01 (-2.375433e+01 +/- 6.189321e+00) [K]
    Coulombic Real/kʙ      -9.754307e+02 (-4.464314e+02 +/- 1.330581e+02) [K]
    Coulombic Fourier/kʙ    1.111737e+02 (-4.318128e+01 +/- 8.956837e+00) [K]
    Molecule Intra/kʙ       0.000000e+00 ( 0.000000e+00 +/- 0.000000e+00) [K]

Current cycle: 5900 out of 6000
===============================================================================

Box:      33.35307   0.00000   0.00000  Average:  33.60366   0.00000   0.00000
           0.00000  33.35307   0.00000             0.00000  33.60366   0.00000
           0.00000   0.00000  33.35307             0.00000   0.00000  33.60366
Lengths:  33.35307  33.35307  33.35307  Average:  33.60366  33.60366  33.60366
Angles:   90.00000  90.00000  90.00000  Average:  90.00000  90.00000  90.00000
Rectangular boundary conditions

net charge:   0.00000000

component 0 (CO2) lambda:  0 occupancy:  1 (1.000000)
    net charge:   0.00000000 [e]

Amount of molecules per component :
-------------------------------------------------------------------------------
Component 0 (CO2)
    molecules:      2.200000e+01 molecules  (2.150314e+01 +/- 2.945223e+00)
    number density: 5.929461e-04 molec./A^3 (5.656982e-04 +/- 7.171919e-05)
    density:        4.332166e+01 kg/m^3     (4.133088e+01 +/- 5.239927e+00)

Average pressure tensor: 
-------------------------------------------------------------------------------
 1.6792e+01  1.8074e-01 -1.3088e-01 +/- 2.1629e+00 5.9478e-01 4.7991e-01 [bar]
 1.8074e-01  1.6839e+01 -2.8720e-01 +/- 5.9478e-01 2.1351e+00 8.3599e-01 [bar]
-1.3088e-01 -2.8720e-01  1.7078e+01 +/- 4.7991e-01 8.3599e-01 2.2808e+00 [bar]
Ideal-gas pressure:   1.952579e+01 +/ 2.475478e+00 [bar]
Excess pressure:     -2.622735e+00 +/ 5.637897e-01 [bar]
Pressure:             1.690305e+01 +/ 2.076395e+00 [bar]

Total potential energy/kʙ  -1.088495e+03 (-1.864655e+03 +/- 5.094008e+02) [K]
-------------------------------------------------------------------------------
ExternalField-molecule
    Van der Waals/kʙ        0.000000e+00 ( 0.000000e+00 +/- 0.000000e+00) [K]
Framework-molecule
    Van der Waals/kʙ        0.000000e+00 ( 0.000000e+00 +/- 0.000000e+00) [K]
    Van der Waals (Tail)/kʙ 0.000000e+00 ( 0.000000e+00 +/- 0.000000e+00) [K]
    Coulombic Real/kʙ       0.000000e+00 ( 0.000000e+00 +/- 0.000000e+00) [K]
    Coulombic Fourier/kʙ    0.000000e+00 ( 0.000000e+00 +/- 0.000000e+00) [K]
Molecule-molecule
    Van der Waals/kʙ       -1.031480e+03 (-1.353301e+03 +/- 3.635847e+02) [K]
    Van der Waals (Tail)/kʙ-2.422558e+01 (-2.371713e+01 +/- 6.083611e+00) [K]
    Coulombic Real/kʙ      -9.881297e+01 (-4.451194e+02 +/- 1.329185e+02) [K]
    Coulombic Fourier/kʙ    6.602404e+01 (-4.251813e+01 +/- 9.984320e+00) [K]
    Molecule Intra/kʙ       0.000000e+00 ( 0.000000e+00 +/- 0.000000e+00) [K]


Energy statistics             |  Energy [K]   | Recomputed [K]|  Drift [K]    |
===============================================================================
Total potential energy/kʙ     | -2.412024e+03 | -2.412024e+03 | -2.079167e-10 |
    external field VDW/kʙ     |  0.000000e+00 |  0.000000e+00 |  0.000000e+00 |
    external field Real/kʙ    |  0.000000e+00 |  0.000000e+00 |  0.000000e+00 |
    framework-molecule VDW/kʙ |  0.000000e+00 |  0.000000e+00 |  0.000000e+00 |
    framework-molecule Real/kʙ|  0.000000e+00 |  0.000000e+00 |  0.000000e+00 |
    molecule-molecule VDW/kʙ  | -1.775603e+03 | -1.775603e+03 |  1.640807e-12 |
    molecule-molecule Real/kʙ | -6.148981e+02 | -6.148981e+02 | -1.435706e-12 |
    Van der Waals (Tail)/kʙ   | -2.215041e+01 | -2.215041e+01 | -1.281881e-14 |
    Ewald Fourier/kʙ          |  1.235546e+03 |  1.235546e+03 |  1.914275e-12 |
    Ewald self/kʙ             | -3.857024e+05 | -3.857024e+05 |  7.000777e-11 |
    Ewald exclusion/kʙ        |  3.844675e+05 |  3.844675e+05 | -2.800311e-10 |
    intra VDW/kʙ              |  0.000000e+00 |  0.000000e+00 |  0.000000e+00 |
    intra Coulombic/kʙ        |  0.000000e+00 |  0.000000e+00 |  0.000000e+00 |
    polarization/kʙ           |  0.000000e+00 |  0.000000e+00 |  0.000000e+00 |
    dU/dlambda VDW/kʙ         |  0.000000e+00 |  0.000000e+00 |  0.000000e+00 |
    dU/dlambda Real/kʙ        |  0.000000e+00 |  0.000000e+00 |  0.000000e+00 |
    dU/dlambda Ewald/kʙ       |  0.000000e+00 |  0.000000e+00 |  0.000000e+00 |
-------------------------------------------------------------------------------


Monte-Carlo moves statistics
===============================================================================

    Gibbs volume         all:                2955
    Gibbs volume         total:              5980
    Gibbs volume         constructed:        5980
    Gibbs volume         accepted:           3307
    Gibbs volume         fraction:       0.553010
    Gibbs volume         max-change:     0.037617

Component 0 [CO2]
    Reinsertion (CBMC)   all:              148938
    Reinsertion (CBMC)   total:            148938
    Reinsertion (CBMC)   constructed:      148938
    Reinsertion (CBMC)   accepted:         110394
    Reinsertion (CBMC)   fraction:       0.741208
    Reinsertion (CBMC)   max-change:     0.000000

    Gibbs swap (CBMC)    all:              298547
    Gibbs swap (CBMC)    total:            597876
    Gibbs swap (CBMC)    constructed:      569497
    Gibbs swap (CBMC)    accepted:          41047
    Gibbs swap (CBMC)    fraction:       0.068655
    Gibbs swap (CBMC)    max-change:     0.000000

    Translation          all:              149557
    Translation          total:             49783      49706      50068
    Translation          constructed:       49721      49649      50004
    Translation          accepted:          43772      43728      44089
    Translation          fraction:       0.879256   0.879733   0.880582
    Translation          max-change:     1.500000   1.500000   1.500000

    Rotation             all:              149463
    Rotation             total:             49906      50043      49514
    Rotation             constructed:       49895      50034      49508
    Rotation             accepted:          43709      44090      43847
    Rotation             fraction:       0.875827   0.881042   0.885548
    Rotation             max-change:     1.500000   1.500000   1.500000



Production run counting of the MC moves summed over systems and components
===============================================================================

Reinsertion (CBMC)                   298154 (19.8769 [%])
Gibbs volume                           5980 (0.3987 [%])
Gibbs swap (CBMC)                    597876 (39.8584 [%])
Translation                          299349 (19.9566 [%])
Rotation                             298641 (19.9094 [%])

Production count MC-steps:          1500000 [-]
               All summed:          1500000 [-]
               difference:                0 [-]


Production run CPU timings of the MC moves
===============================================================================

Component 0 CO2

Rotation                              6.683584 [s]
    Ewald                             5.231013 [s]
    ExternalField-Molecule            0.008013 [s]
    Framework-Molecule                0.008445 [s]
    Molecule-Molecule                 0.864715 [s]
    Overhead                          0.571398 [s]

Reinsertion (CBMC)                   15.925685 [s]
    Ewald                             5.231730 [s]
    NonEwald                         10.243452 [s]
    Overhead                          0.450503 [s]

Translation                           6.704420 [s]
    Ewald                             5.234284 [s]
    ExternalField-Molecule            0.007928 [s]
    Framework-Molecule                0.012539 [s]
    Molecule-Molecule                 0.876321 [s]
    Overhead                          0.573348 [s]



Gibbs swap (CBMC)                   181.301247 [s]
    Ewald                            16.977522 [s]
    NonEwald                        162.161653 [s]
    Tail                              1.562509 [s]

Gibbs volume                         26.578261 [s]
    Ewald                             5.391788 [s]
    NonEwald                         20.210157 [s]
    Tail                              0.840456 [s]

Property sampling                     0.301542 [s]
Energy/pressure sampling:             0.430746 [s]


Production run CPU timings of the MC moves summed over systems and components
===============================================================================


Translation                          29.145852 [s]
    Ewald                            10.475403 [s]
    ExternalField-Molecule            0.015693 [s]
    Framework-Molecule                0.025161 [s]
    Molecule-Molecule                17.577882 [s]
    Overhead                          1.051713 [s]

Rotation                             28.941904 [s]
    Ewald                            10.443607 [s]
    ExternalField-Molecule            0.016032 [s]
    Framework-Molecule                0.016753 [s]
    Molecule-Molecule                17.495105 [s]
    Overhead                          0.970407 [s]

Reinsertion (CBMC)                  136.800984 [s]
    Ewald                            10.051754 [s]
    NonEwald                        126.164704 [s]
    Overhead                          0.584526 [s]

Gibbs volume                         53.875782 [s]
    Ewald                            10.945055 [s]
    NonEwald                         40.946978 [s]
    Tail                              1.704713 [s]
    Overhead                          0.279036 [s]

Gibbs swap (CBMC)                   343.764238 [s]
    Ewald                            32.401974 [s]
    NonEwald                        307.507762 [s]
    Tail                              2.708626 [s]
    Overhead                          1.145876 [s]

Property sampling:                    0.625558 [s]
Energy/pressure sampling:            10.466283 [s]

Production simulation time:         604.638629 [s]
                All summed:         603.620601 [s]
                  Overhead:           1.018028 [s]


Initalization simulation time:      194.478490 [s]
Equilibration simulation time:        0.000000 [s]
Production simulation time:         604.638629 [s]
Total simulation time:              799.117119 [s]


Energy averages and statistics:
===============================================================================

Framework-molecule energy:
-------------------------------------------------------------------------------



Framework-molecule energy contributions per energy type:
-------------------------------------------------------------------------------



Inter-molecular energy:
-------------------------------------------------------------------------------

    Inter-molecular energy/kʙ 0-0 [CO2-CO2]:
    ---------------------------------------------------------------------------
        Block[  0] -2.380917e+03
        Block[  1] -1.656980e+03
        Block[  2] -1.586078e+03
        Block[  3] -2.211445e+03
        Block[  4] -1.472261e+03
        -----------------------------------------------------------------------
        Average  -1.861536e+03 +/-  5.048383e+02 [K]



Inter-molecular energy contributions per energy type:
-------------------------------------------------------------------------------

    Van der Waals energy/kʙ 0-0 [CO2-CO2]:
    ---------------------------------------------------------------------------
        Block[  0] -1.714790e+03
        Block[  1] -1.230333e+03
        Block[  2] -1.155088e+03
        Block[  3] -1.600745e+03
        Block[  4] -1.062945e+03
        -----------------------------------------------------------------------
        Average  -1.352780e+03 +/-  3.569168e+02 [K]

    VDW Tail-Correction energy/kʙ 0-0 [CO2-CO2]:
    ---------------------------------------------------------------------------
        Block[  0] -2.969472e+01
        Block[  1] -2.148450e+01
        Block[  2] -2.059084e+01
        Block[  3] -2.795693e+01
        Block[  4] -1.879053e+01
        -----------------------------------------------------------------------
        Average  -2.370350e+01 +/-  5.977632e+00 [K]

    Coulomb Real energy/kʙ 0-0 [CO2-CO2]:
    ---------------------------------------------------------------------------
        Block[  0] -5.829138e+02
        Block[  1] -3.637060e+02
        Block[  2] -3.718647e+02
        Block[  3] -5.365905e+02
        Block[  4] -3.585319e+02
        -----------------------------------------------------------------------
        Average  -4.427214e+02 +/-  1.343097e+02 [K]

    Coulomb Fourier energy/kʙ 0-0 [CO2-CO2]:
    ---------------------------------------------------------------------------
        Block[  0] -5.351911e+01
        Block[  1] -4.145657e+01
        Block[  2] -3.853441e+01
        Block[  3] -4.615262e+01
        Block[  4] -3.199343e+01
        -----------------------------------------------------------------------
        Average  -4.233123e+01 +/-  1.004403e+01 [K]


Total energy/kʙ
-------------------------------------------------------------------------------
    Block[  0] -2.380917e+03
    Block[  1] -1.656980e+03
    Block[  2] -1.586078e+03
    Block[  3] -2.211445e+03
    Block[  4] -1.472261e+03
    ---------------------------------------------------------------------------
    Average  -1.861536e+03 +/-  5.048383e+02 [K]

Pressure averages and statistics:
===============================================================================

Average pressure tensor: 
-------------------------------------------------------------------------------
 1.6735e+01  1.6523e-01 -1.1763e-01 +/- 2.2034e+00 6.0487e-01 4.7268e-01 [bar]
 1.6523e-01  1.6784e+01 -3.0547e-01 +/- 6.0487e-01 2.1642e+00 8.4455e-01 [bar]
-1.1763e-01 -3.0547e-01  1.7026e+01 +/- 4.7268e-01 8.4455e-01 2.3121e+00 [bar]

    Block[  0]  2.192705e+06
    Block[  1]  1.870111e+06
    Block[  2]  1.829180e+06
    Block[  3]  2.123653e+06
    Block[  4]  1.747236e+06
    ---------------------------------------------------------------------------
    Ideal gas pressure   1.952577e+06 +/-  1.453171e-02 [Pa]
                         1.952577e+01 +/-  2.413050e+00 [bar]


    Block[  0] -3.228286e+05
    Block[  1] -2.833294e+05
    Block[  2] -2.433298e+05
    Block[  3] -2.556945e+05
    Block[  4] -2.336281e+05
    ---------------------------------------------------------------------------
    Excess pressure  -2.677621e+05 +/-  4.468563e+04 [Pa]
                     -2.677621e+00 +/-  4.468563e-01 [bar]


    Block[  0]  1.869876e+06
    Block[  1]  1.586782e+06
    Block[  2]  1.585850e+06
    Block[  3]  1.867958e+06
    Block[  4]  1.513608e+06
    ---------------------------------------------------------------------------
    Pressure average   1.684815e+06 +/-  2.118740e+05 [Pa]
                       1.684815e+01 +/-  2.118740e+00 [bar]


Enthalpy of adsorption
===============================================================================

Component 0 [CO2]
-------------------------------------------------------------------------------
    Block[  0] -4.382716e+02
    Block[  1] -4.130685e+02
    Block[  2] -4.104282e+02
    Block[  3] -4.396886e+02
    Block[  4] -4.109961e+02
    ---------------------------------------------------------------------------
    Enthalpy of adsorption: -4.224906e+02 +/-  1.873759e+01 [K]
                            -3.512783e+00 +/-  1.557930e-01 [kJ/mol]
    Warning: need to subtract the ideal-gas energy.


Densities
===============================================================================

Component 0 (CO2)
    Block[  0] 24.425833333333333
    Block[  1] 20.4575
    Block[  2] 20.07916666666667
    Block[  3] 23.4725
    Block[  4] 19.040833333333335
    -----------------------------------------------------------------------
    Density average   2.149517e+01 +/-  2.885185e+00 [molecules]
    Density average   5.656978e-04 +/-  6.991052e-05 [molec/A^3]
    Density average   4.133085e+01 +/-  5.107782e+00 [kg.m⁻³]

