Compiler and run-time data
===============================================================================
RASPA 3.0.4

Random seed: 1265731859

Compiled as a 64-bits application
Compiler: gcc Ubuntu Clang 18.1.3 (1ubuntu1)
Compile Date = Mar 15 2025, Compile Time = 19:39:45

2025-06-02 14:17:00.121074
Simulation started on Mon, Jun 02
The start time was 14:17:00

Hostname:    c061
OS type:     Linux on x86_64
OS release:  6.8.0-58-generic
OS version:  #60-Ubuntu SMP PREEMPT_DYNAMIC Fri Mar 14 18:29:48 UTC 2025


Mutual consistent basic set of units:
===============================================================================

Unit of temperature: 1 [K]
Unit of length:      1e-10 [m]
Unit of time:        1e-12 [s]
Unit of mass:        1.6605402e-27 [kg]
Unit of charge:      1.60217733e-19 [C/particle]


Boltzmann constant (internal units):          0.8314464919307584 [-]
represents conversion from energy (internal units) to temperature (in Kelvin)

Derived units and their conversion factors:
===============================================================================

Unit of energy:                           1.6605402000000002e-23 [J]
Unit of energy:                           10.000008872307538 [J.mol⁻¹]
Unit of velocity:                         100 [m.s⁻¹]
Unit of force:                            1.6605402000000002e-13 [N]
Unit of diffusion:                        1.0000000000000002e-08 [m².s⁻¹]
Unit of acceleration:                     1.0000000000000002e-08 [m².s⁻¹]
Unit of torque:                           1.6605402000000002e-23 [N.m]
Unit of pressure:                         16605402 [Pa]
Unit of volume:                           1e-30 [m³]
Unit of density:                          1660.5402 [kg.m⁻³]
Unit of dynamic viscosity:                1.6605401999999997e-05 [N.s.m⁻²]
Unit of enthalpy:                         1.6605402000000002e-23 [J]
Unit of polarizability:                   1.5458657349975198e-35 [-]
Unit of Coulomb potential:                167101.08000665612 [K]
Unit of dielectric constant:              1.5458657349975193e-05 [s².C².kg⁻¹.m⁻³]
Unit of dipole moment:                    1.60217733e-29 [C.m]
Unit of Debye:                            4.803206799099162 [C.m]
Unit of electric potential:               0.00010364272224473431 [V]
Unit of electric field:                   1036427.222447343 [V.m⁻¹]
Unit of isothermal compressibility:       6.02213665167516e-08 [Pa⁻¹]
Unit of heat capacity:                    10.000008872307538 [J.mol⁻¹.K⁻¹]
Unit of volumetric expansion coefficient: 1 [K⁻¹]


Internal conversion factors:
===============================================================================

Energy (internal units) to Kelvin:      1.202724284692786 [-]
Kelvin to energy (internal units):      0.8314457542157567 [-]


System definitions
===============================================================================

Temperature:          250 [K]
Beta:                 0.0048108928702210625 [-]
Pressure:             1.2e+07 [Pa]
Helium void fraction: 1 [-]

Box:      30.00000   0.00000   0.00000
           0.00000  30.00000   0.00000
           0.00000   0.00000  30.00000
Lengths:  30.00000  30.00000  30.00000
Angles:   90.00000  90.00000  90.00000
Rectangular boundary conditions



Property measurement settings
===============================================================================




Pseudo-atoms
===============================================================================

  0 - C_co2    framework-atom: false
  1 - O_co2    framework-atom: false

  0 - C_co2    mass: 12.00000, charge:  0.70000
  1 - O_co2    mass: 15.99940, charge: -0.35000

  0 - C_co2    polarizability:  0.00000
  1 - O_co2    polarizability:  0.00000

  0 - J. J. Potoff et al., AIChE J. 2001, 47, 1676–1682.
  1 - J. J. Potoff et al., AIChE J. 2001, 47, 1676–1682.

Force field status
===============================================================================

Cutoff Framework-Molecule VDW:  10.00000 [Å]
Cutoff Molecule-Molecule VDW:   10.00000 [Å]
Cutoff Coulomb:                 10.00000 [Å]

Overlap-criteria VDW:           1.000000e+05 [K]

C_co2    - C_co2    Lennard-Jones p₀/kʙ:  27.00000 [K], p₁:  2.80000 [Å]
                                  shift:   0.00000 [K], tailcorrections: true
C_co2    - O_co2    Lennard-Jones p₀/kʙ:  46.18441 [K], p₁:  2.92500 [Å]
                                  shift:   0.00000 [K], tailcorrections: true
O_co2    - O_co2    Lennard-Jones p₀/kʙ:  79.00000 [K], p₁:  3.05000 [Å]
                                  shift:   0.00000 [K], tailcorrections: true

Ewald precision: 1e-06
Ewald alpha: 0.32079885109097883
Ewald k-vectors: 10 10 10


Component definitions
===============================================================================

Component 0 [CO2]

    Type: Adsorbate

    Critical temperature:  304.1282 [K]
    Critical pressure:     7377300 [Pa]
    Acentric factor:       0.22394 [-]

    Mol-fraction:                 1 [-]
    Swappable:                   false

    Mass:                         43.9988 [-]
    Bulk fluid density:           0 [-]
    Compressibility:              0 [-]
    Excess molecules:             0 [-]

    Number Of Atoms:    3
    CBMC starting bead: 0
      0: O_co2  position  0.00000 -0.00000  1.16000, charge -0.35000
      1: C_co2  position  0.00000 -0.00000  0.00000, charge  0.70000
      2: O_co2  position  0.00000 -0.00000 -1.16000, charge -0.35000
    Diagonalized inertia-vector:      43.05758528 43.05758528 0.00000000
    Translational degrees of freedom: 3
    Rotational degrees of freedom:    2
    Shape of the molecule is: 'Linear'
    Net-charge:        0.00000000 [e]

    Move probabilities:
    Translation:                   0.331126 [-]
    Random translation:            0.000000 [-]
    Rotation:                      0.331126 [-]
    Random rotation:               0.000000 [-]
    Volume change:                 0.006623 [-]
    Reinsertion (CBMC):            0.331126 [-]
    Identity change (CBMC):        0.000000 [-]
    Swap:                          0.000000 [-]
    Swap (CBMC):                   0.000000 [-]
    Swap (CFCMC):                  0.000000 [-]
    Swap (CB/CFCMC):               0.000000 [-]
    Gibbs volume:                  0.000000 [-]
    Gibbs swap (CBMC):             0.000000 [-]
    Gibbs swap (CFCMC):            0.000000 [-]
    Widom:                         0.000000 [-]
    Widom (CFCMC):                 0.000000 [-]
    Widom (CB/CFCMC):              0.000000 [-]
    Parallel tempering:            0.000000 [-]
    Hybrid MC:                     0.000000 [-]

    number of blocking-pockets: 0

    number of bonds: 0





Number of pseudo-atoms
===============================================================================

Component   0 (CO2)
-------------------------------------------------------------------------------
    index   0 (C_co2): 100 atoms
    index   1 (O_co2): 200 atoms

Total number of pseudo-atoms:
-------------------------------------------------------------------------------
    index   0 (C_co2): 100 atoms
    index   1 (O_co2): 200 atoms




Energy status Recomputed from scratch
===============================================================================

Total potential energy/kʙ       -4.134792e+03 [K]
    external field VDW/kʙ        0.000000e+00 [K]
    external field Real/kʙ       0.000000e+00 [K]
    framework-molecule VDW/kʙ    0.000000e+00 [K]
    framework-molecule Real/kʙ   0.000000e+00 [K]
    molecule-molecule VDW/kʙ    -5.412412e+02 [K]
    molecule-molecule Real/kʙ   -2.528339e+03 [K]
    Van der Waals (Tail)/kʙ     -1.188352e+03 [K]
    Ewald Fourier/kʙ             1.465399e+04 [K]
    Ewald self/kʙ               -2.222923e+06 [K]
    Ewald exclusion/kʙ           2.208392e+06 [K]
    intra VDW/kʙ                 0.000000e+00 [K]
    intra Coulombic/kʙ           0.000000e+00 [K]
    polarization/kʙ              0.000000e+00 [K]
    dU/dlambda VDW/kʙ            0.000000e+00 [K]
    dU/dlambda Real/kʙ           0.000000e+00 [K]
    dU/dlambda Ewald/kʙ          0.000000e+00 [K]





Initialization: Current cycle: 0 out of 1000
===============================================================================

Box:      30.00000   0.00000   0.00000
           0.00000  30.00000   0.00000
           0.00000   0.00000  30.00000
Lengths:  30.00000  30.00000  30.00000
Angles:   90.00000  90.00000  90.00000
Rectangular boundary conditions

net charge:   0.00000000

component   0 (CO2) lambda:  0 occupancy:  1 (1.000000)
    net charge:   0.00000000 [e]

Amount of molecules per component :
-------------------------------------------------------------------------------
Component 0 (CO2)
    molecules:         1.000000e+02 molecules
    number density:    3.703704e-03 molec/A^3
    density:           2.705989e+02 kg/m^3

Total potential energy/kʙ       -3.949809e+04 [K]
-------------------------------------------------------------------------------
    external field VDW/kʙ        0.000000e+00 [K]
    external field Real/kʙ       0.000000e+00 [K]
    framework-molecule VDW/kʙ    0.000000e+00 [K]
    framework-molecule Real/kʙ   0.000000e+00 [K]
    molecule-molecule VDW/kʙ    -3.119709e+04 [K]
    molecule-molecule Real/kʙ   -6.338444e+03 [K]
    Van der Waals (Tail)/kʙ     -1.188352e+03 [K]
    Ewald Fourier/kʙ             1.375665e+04 [K]
    Ewald self/kʙ               -2.222923e+06 [K]
    Ewald exclusion/kʙ           2.208392e+06 [K]
    intra VDW/kʙ                 0.000000e+00 [K]
    intra Coulombic/kʙ           0.000000e+00 [K]
    polarization/kʙ              0.000000e+00 [K]
    dU/dlambda VDW/kʙ            0.000000e+00 [K]
    dU/dlambda Real/kʙ           0.000000e+00 [K]
    dU/dlambda Ewald/kʙ          0.000000e+00 [K]


Initialization: Current cycle: 100 out of 1000
===============================================================================

Box:      26.94895   0.00000   0.00000
           0.00000  26.94895   0.00000
           0.00000   0.00000  26.94895
Lengths:  26.94895  26.94895  26.94895
Angles:   90.00000  90.00000  90.00000
Rectangular boundary conditions

net charge:   0.00000000

component   0 (CO2) lambda:  0 occupancy:  1 (1.000000)
    net charge:   0.00000000 [e]

Amount of molecules per component :
-------------------------------------------------------------------------------
Component 0 (CO2)
    molecules:         1.000000e+02 molecules
    number density:    5.109454e-03 molec/A^3
    density:           3.733054e+02 kg/m^3

Total potential energy/kʙ       -6.825607e+04 [K]
-------------------------------------------------------------------------------
    external field VDW/kʙ        0.000000e+00 [K]
    external field Real/kʙ       0.000000e+00 [K]
    framework-molecule VDW/kʙ    0.000000e+00 [K]
    framework-molecule Real/kʙ   0.000000e+00 [K]
    molecule-molecule VDW/kʙ    -5.000251e+04 [K]
    molecule-molecule Real/kʙ   -1.309158e+04 [K]
    Van der Waals (Tail)/kʙ     -1.639393e+03 [K]
    Ewald Fourier/kʙ             1.100827e+04 [K]
    Ewald self/kʙ               -2.222923e+06 [K]
    Ewald exclusion/kʙ           2.208392e+06 [K]
    intra VDW/kʙ                 0.000000e+00 [K]
    intra Coulombic/kʙ           0.000000e+00 [K]
    polarization/kʙ              0.000000e+00 [K]
    dU/dlambda VDW/kʙ            0.000000e+00 [K]
    dU/dlambda Real/kʙ           0.000000e+00 [K]
    dU/dlambda Ewald/kʙ          0.000000e+00 [K]


Initialization: Current cycle: 200 out of 1000
===============================================================================

Box:      25.03298   0.00000   0.00000
           0.00000  25.03298   0.00000
           0.00000   0.00000  25.03298
Lengths:  25.03298  25.03298  25.03298
Angles:   90.00000  90.00000  90.00000
Rectangular boundary conditions

net charge:   0.00000000

component   0 (CO2) lambda:  0 occupancy:  1 (1.000000)
    net charge:   0.00000000 [e]

Amount of molecules per component :
-------------------------------------------------------------------------------
Component 0 (CO2)
    molecules:         1.000000e+02 molecules
    number density:    6.374741e-03 molec/A^3
    density:           4.657495e+02 kg/m^3

Total potential energy/kʙ       -9.000620e+04 [K]
-------------------------------------------------------------------------------
    external field VDW/kʙ        0.000000e+00 [K]
    external field Real/kʙ       0.000000e+00 [K]
    framework-molecule VDW/kʙ    0.000000e+00 [K]
    framework-molecule Real/kʙ   0.000000e+00 [K]
    molecule-molecule VDW/kʙ    -6.226498e+04 [K]
    molecule-molecule Real/kʙ   -2.063678e+04 [K]
    Van der Waals (Tail)/kʙ     -2.045367e+03 [K]
    Ewald Fourier/kʙ             9.471778e+03 [K]
    Ewald self/kʙ               -2.222923e+06 [K]
    Ewald exclusion/kʙ           2.208392e+06 [K]
    intra VDW/kʙ                 0.000000e+00 [K]
    intra Coulombic/kʙ           0.000000e+00 [K]
    polarization/kʙ              0.000000e+00 [K]
    dU/dlambda VDW/kʙ            0.000000e+00 [K]
    dU/dlambda Real/kʙ           0.000000e+00 [K]
    dU/dlambda Ewald/kʙ          0.000000e+00 [K]


Initialization: Current cycle: 300 out of 1000
===============================================================================

Box:      23.32379   0.00000   0.00000
           0.00000  23.32379   0.00000
           0.00000   0.00000  23.32379
Lengths:  23.32379  23.32379  23.32379
Angles:   90.00000  90.00000  90.00000
Rectangular boundary conditions

net charge:   0.00000000

component   0 (CO2) lambda:  0 occupancy:  1 (1.000000)
    net charge:   0.00000000 [e]

Amount of molecules per component :
-------------------------------------------------------------------------------
Component 0 (CO2)
    molecules:         1.000000e+02 molecules
    number density:    7.881386e-03 molec/A^3
    density:           5.758276e+02 kg/m^3

Total potential energy/kʙ       -8.621918e+04 [K]
-------------------------------------------------------------------------------
    external field VDW/kʙ        0.000000e+00 [K]
    external field Real/kʙ       0.000000e+00 [K]
    framework-molecule VDW/kʙ    0.000000e+00 [K]
    framework-molecule Real/kʙ   0.000000e+00 [K]
    molecule-molecule VDW/kʙ    -6.557710e+04 [K]
    molecule-molecule Real/kʙ   -1.419018e+04 [K]
    Van der Waals (Tail)/kʙ     -2.528781e+03 [K]
    Ewald Fourier/kʙ             1.060773e+04 [K]
    Ewald self/kʙ               -2.222923e+06 [K]
    Ewald exclusion/kʙ           2.208392e+06 [K]
    intra VDW/kʙ                 0.000000e+00 [K]
    intra Coulombic/kʙ           0.000000e+00 [K]
    polarization/kʙ              0.000000e+00 [K]
    dU/dlambda VDW/kʙ            0.000000e+00 [K]
    dU/dlambda Real/kʙ           0.000000e+00 [K]
    dU/dlambda Ewald/kʙ          0.000000e+00 [K]


Initialization: Current cycle: 400 out of 1000
===============================================================================

Box:      21.31313   0.00000   0.00000
           0.00000  21.31313   0.00000
           0.00000   0.00000  21.31313
Lengths:  21.31313  21.31313  21.31313
Angles:   90.00000  90.00000  90.00000
Rectangular boundary conditions

net charge:   0.00000000

component   0 (CO2) lambda:  0 occupancy:  1 (1.000000)
    net charge:   0.00000000 [e]

Amount of molecules per component :
-------------------------------------------------------------------------------
Component 0 (CO2)
    molecules:         1.000000e+02 molecules
    number density:    1.032900e-02 molec/A^3
    density:           7.546541e+02 kg/m^3

Total potential energy/kʙ       -1.132044e+05 [K]
-------------------------------------------------------------------------------
    external field VDW/kʙ        0.000000e+00 [K]
    external field Real/kʙ       0.000000e+00 [K]
    framework-molecule VDW/kʙ    0.000000e+00 [K]
    framework-molecule Real/kʙ   0.000000e+00 [K]
    molecule-molecule VDW/kʙ    -7.635143e+04 [K]
    molecule-molecule Real/kʙ   -2.755509e+04 [K]
    Van der Waals (Tail)/kʙ     -3.314109e+03 [K]
    Ewald Fourier/kʙ             8.547117e+03 [K]
    Ewald self/kʙ               -2.222923e+06 [K]
    Ewald exclusion/kʙ           2.208392e+06 [K]
    intra VDW/kʙ                 0.000000e+00 [K]
    intra Coulombic/kʙ           0.000000e+00 [K]
    polarization/kʙ              0.000000e+00 [K]
    dU/dlambda VDW/kʙ            0.000000e+00 [K]
    dU/dlambda Real/kʙ           0.000000e+00 [K]
    dU/dlambda Ewald/kʙ          0.000000e+00 [K]


Initialization: Current cycle: 500 out of 1000
===============================================================================

Box:      20.62357   0.00000   0.00000
           0.00000  20.62357   0.00000
           0.00000   0.00000  20.62357
Lengths:  20.62357  20.62357  20.62357
Angles:   90.00000  90.00000  90.00000
Rectangular boundary conditions

net charge:   0.00000000

component   0 (CO2) lambda:  0 occupancy:  1 (1.000000)
    net charge:   0.00000000 [e]

Amount of molecules per component :
-------------------------------------------------------------------------------
Component 0 (CO2)
    molecules:         1.000000e+02 molecules
    number density:    1.140009e-02 molec/A^3
    density:           8.329099e+02 kg/m^3

Total potential energy/kʙ       -1.226501e+05 [K]
-------------------------------------------------------------------------------
    external field VDW/kʙ        0.000000e+00 [K]
    external field Real/kʙ       0.000000e+00 [K]
    framework-molecule VDW/kʙ    0.000000e+00 [K]
    framework-molecule Real/kʙ   0.000000e+00 [K]
    molecule-molecule VDW/kʙ    -8.611425e+04 [K]
    molecule-molecule Real/kʙ   -2.594173e+04 [K]
    Van der Waals (Tail)/kʙ     -3.657774e+03 [K]
    Ewald Fourier/kʙ             7.594458e+03 [K]
    Ewald self/kʙ               -2.222923e+06 [K]
    Ewald exclusion/kʙ           2.208392e+06 [K]
    intra VDW/kʙ                 0.000000e+00 [K]
    intra Coulombic/kʙ           0.000000e+00 [K]
    polarization/kʙ              0.000000e+00 [K]
    dU/dlambda VDW/kʙ            0.000000e+00 [K]
    dU/dlambda Real/kʙ           0.000000e+00 [K]
    dU/dlambda Ewald/kʙ          0.000000e+00 [K]


Initialization: Current cycle: 600 out of 1000
===============================================================================

Box:      19.97324   0.00000   0.00000
           0.00000  19.97324   0.00000
           0.00000   0.00000  19.97324
Lengths:  19.97324  19.97324  19.97324
Angles:   90.00000  90.00000  90.00000
Rectangular boundary conditions

net charge:   0.00000000

component   0 (CO2) lambda:  0 occupancy:  1 (1.000000)
    net charge:   0.00000000 [e]

Amount of molecules per component :
-------------------------------------------------------------------------------
Component 0 (CO2)
    molecules:         1.000000e+02 molecules
    number density:    1.255031e-02 molec/A^3
    density:           9.169469e+02 kg/m^3

Total potential energy/kʙ       -1.340494e+05 [K]
-------------------------------------------------------------------------------
    external field VDW/kʙ        0.000000e+00 [K]
    external field Real/kʙ       0.000000e+00 [K]
    framework-molecule VDW/kʙ    0.000000e+00 [K]
    framework-molecule Real/kʙ   0.000000e+00 [K]
    molecule-molecule VDW/kʙ    -9.563622e+04 [K]
    molecule-molecule Real/kʙ   -2.732848e+04 [K]
    Van der Waals (Tail)/kʙ     -4.026828e+03 [K]
    Ewald Fourier/kʙ             7.472968e+03 [K]
    Ewald self/kʙ               -2.222923e+06 [K]
    Ewald exclusion/kʙ           2.208392e+06 [K]
    intra VDW/kʙ                 0.000000e+00 [K]
    intra Coulombic/kʙ           0.000000e+00 [K]
    polarization/kʙ              0.000000e+00 [K]
    dU/dlambda VDW/kʙ            0.000000e+00 [K]
    dU/dlambda Real/kʙ           0.000000e+00 [K]
    dU/dlambda Ewald/kʙ          0.000000e+00 [K]


Initialization: Current cycle: 700 out of 1000
===============================================================================

Box:      19.18906   0.00000   0.00000
           0.00000  19.18906   0.00000
           0.00000   0.00000  19.18906
Lengths:  19.18906  19.18906  19.18906
Angles:   90.00000  90.00000  90.00000
Rectangular boundary conditions

net charge:   0.00000000

component   0 (CO2) lambda:  0 occupancy:  1 (1.000000)
    net charge:   0.00000000 [e]

Amount of molecules per component :
-------------------------------------------------------------------------------
Component 0 (CO2)
    molecules:         1.000000e+02 molecules
    number density:    1.415269e-02 molec/A^3
    density:           1.034020e+03 kg/m^3

Total potential energy/kʙ       -1.400534e+05 [K]
-------------------------------------------------------------------------------
    external field VDW/kʙ        0.000000e+00 [K]
    external field Real/kʙ       0.000000e+00 [K]
    framework-molecule VDW/kʙ    0.000000e+00 [K]
    framework-molecule Real/kʙ   0.000000e+00 [K]
    molecule-molecule VDW/kʙ    -1.014859e+05 [K]
    molecule-molecule Real/kʙ   -2.719757e+04 [K]
    Van der Waals (Tail)/kʙ     -4.540960e+03 [K]
    Ewald Fourier/kʙ             7.701904e+03 [K]
    Ewald self/kʙ               -2.222923e+06 [K]
    Ewald exclusion/kʙ           2.208392e+06 [K]
    intra VDW/kʙ                 0.000000e+00 [K]
    intra Coulombic/kʙ           0.000000e+00 [K]
    polarization/kʙ              0.000000e+00 [K]
    dU/dlambda VDW/kʙ            0.000000e+00 [K]
    dU/dlambda Real/kʙ           0.000000e+00 [K]
    dU/dlambda Ewald/kʙ          0.000000e+00 [K]


Initialization: Current cycle: 800 out of 1000
===============================================================================

Box:      19.88136   0.00000   0.00000
           0.00000  19.88136   0.00000
           0.00000   0.00000  19.88136
Lengths:  19.88136  19.88136  19.88136
Angles:   90.00000  90.00000  90.00000
Rectangular boundary conditions

net charge:   0.00000000

component   0 (CO2) lambda:  0 occupancy:  1 (1.000000)
    net charge:   0.00000000 [e]

Amount of molecules per component :
-------------------------------------------------------------------------------
Component 0 (CO2)
    molecules:         1.000000e+02 molecules
    number density:    1.272511e-02 molec/A^3
    density:           9.297186e+02 kg/m^3

Total potential energy/kʙ       -1.353127e+05 [K]
-------------------------------------------------------------------------------
    external field VDW/kʙ        0.000000e+00 [K]
    external field Real/kʙ       0.000000e+00 [K]
    framework-molecule VDW/kʙ    0.000000e+00 [K]
    framework-molecule Real/kʙ   0.000000e+00 [K]
    molecule-molecule VDW/kʙ    -9.928864e+04 [K]
    molecule-molecule Real/kʙ   -2.476060e+04 [K]
    Van der Waals (Tail)/kʙ     -4.082915e+03 [K]
    Ewald Fourier/kʙ             7.350287e+03 [K]
    Ewald self/kʙ               -2.222923e+06 [K]
    Ewald exclusion/kʙ           2.208392e+06 [K]
    intra VDW/kʙ                 0.000000e+00 [K]
    intra Coulombic/kʙ           0.000000e+00 [K]
    polarization/kʙ              0.000000e+00 [K]
    dU/dlambda VDW/kʙ            0.000000e+00 [K]
    dU/dlambda Real/kʙ           0.000000e+00 [K]
    dU/dlambda Ewald/kʙ          0.000000e+00 [K]


Initialization: Current cycle: 900 out of 1000
===============================================================================

Box:      19.46252   0.00000   0.00000
           0.00000  19.46252   0.00000
           0.00000   0.00000  19.46252
Lengths:  19.46252  19.46252  19.46252
Angles:   90.00000  90.00000  90.00000
Rectangular boundary conditions

net charge:   0.00000000

component   0 (CO2) lambda:  0 occupancy:  1 (1.000000)
    net charge:   0.00000000 [e]

Amount of molecules per component :
-------------------------------------------------------------------------------
Component 0 (CO2)
    molecules:         1.000000e+02 molecules
    number density:    1.356446e-02 molec/A^3
    density:           9.910427e+02 kg/m^3

Total potential energy/kʙ       -1.476432e+05 [K]
-------------------------------------------------------------------------------
    external field VDW/kʙ        0.000000e+00 [K]
    external field Real/kʙ       0.000000e+00 [K]
    framework-molecule VDW/kʙ    0.000000e+00 [K]
    framework-molecule Real/kʙ   0.000000e+00 [K]
    molecule-molecule VDW/kʙ    -1.060163e+05 [K]
    molecule-molecule Real/kʙ   -2.996007e+04 [K]
    Van der Waals (Tail)/kʙ     -4.352224e+03 [K]
    Ewald Fourier/kʙ             7.216233e+03 [K]
    Ewald self/kʙ               -2.222923e+06 [K]
    Ewald exclusion/kʙ           2.208392e+06 [K]
    intra VDW/kʙ                 0.000000e+00 [K]
    intra Coulombic/kʙ           0.000000e+00 [K]
    polarization/kʙ              0.000000e+00 [K]
    dU/dlambda VDW/kʙ            0.000000e+00 [K]
    dU/dlambda Real/kʙ           0.000000e+00 [K]
    dU/dlambda Ewald/kʙ          0.000000e+00 [K]


Current cycle: 0 out of 5000
===============================================================================

Box:      19.18939   0.00000   0.00000  Average:  19.18939   0.00000   0.00000
           0.00000  19.18939   0.00000             0.00000  19.18939   0.00000
           0.00000   0.00000  19.18939             0.00000   0.00000  19.18939
Lengths:  19.18939  19.18939  19.18939  Average:  19.18939  19.18939  19.18939
Angles:   90.00000  90.00000  90.00000  Average:  90.00000  90.00000  90.00000
Rectangular boundary conditions

net charge:   0.00000000

component 0 (CO2) lambda:  0 occupancy:  1 (1.000000)
    net charge:   0.00000000 [e]

Amount of molecules per component :
-------------------------------------------------------------------------------
Component 0 (CO2)
    molecules:      1.000000e+02 molecules  (1.000000e+02 +/- 0.000000e+00)
    number density: 1.415196e-02 molec./A^3 (1.415196e-02 +/- 0.000000e+00)
    density:        1.033967e+03 kg/m^3     (1.033967e+03 +/- 0.000000e+00)

Average pressure tensor: 
-------------------------------------------------------------------------------
 4.8847e+02  0.0000e+00  0.0000e+00 +/- 0.0000e+00 0.0000e+00 0.0000e+00 [bar]
 0.0000e+00  4.8847e+02  0.0000e+00 +/- 0.0000e+00 0.0000e+00 0.0000e+00 [bar]
 0.0000e+00  0.0000e+00  4.8847e+02 +/- 0.0000e+00 0.0000e+00 0.0000e+00 [bar]
Ideal-gas pressure:   4.884728e+02 +/ 0.000000e+00 [bar]
Excess pressure:      0.000000e+00 +/ 0.000000e+00 [bar]
Pressure:             4.884728e+02 +/ 0.000000e+00 [bar]

Total potential energy/kʙ  -1.464457e+05 (-1.464457e+05 +/- 0.000000e+00) [K]
-------------------------------------------------------------------------------
ExternalField-molecule
    Van der Waals/kʙ        0.000000e+00 ( 0.000000e+00 +/- 0.000000e+00) [K]
Framework-molecule
    Van der Waals/kʙ        0.000000e+00 ( 0.000000e+00 +/- 0.000000e+00) [K]
    Van der Waals (Tail)/kʙ 0.000000e+00 ( 0.000000e+00 +/- 0.000000e+00) [K]
    Coulombic Real/kʙ       0.000000e+00 ( 0.000000e+00 +/- 0.000000e+00) [K]
    Coulombic Fourier/kʙ    0.000000e+00 ( 0.000000e+00 +/- 0.000000e+00) [K]
Molecule-molecule
    Van der Waals/kʙ       -1.068472e+05 (-1.068472e+05 +/- 0.000000e+00) [K]
    Van der Waals (Tail)/kʙ-4.540727e+03 (-4.540727e+03 +/- 0.000000e+00) [K]
    Coulombic Real/kʙ      -2.808401e+04 (-2.808401e+04 +/- 0.000000e+00) [K]
    Coulombic Fourier/kʙ   -6.973692e+03 (-6.973692e+03 +/- 0.000000e+00) [K]
    Molecule Intra/kʙ       0.000000e+00 ( 0.000000e+00 +/- 0.000000e+00) [K]

Current cycle: 100 out of 5000
===============================================================================

Box:      18.94034   0.00000   0.00000  Average:  19.13744   0.00000   0.00000
           0.00000  18.94034   0.00000             0.00000  19.13744   0.00000
           0.00000   0.00000  18.94034             0.00000   0.00000  19.13744
Lengths:  18.94034  18.94034  18.94034  Average:  19.13744  19.13744  19.13744
Angles:   90.00000  90.00000  90.00000  Average:  90.00000  90.00000  90.00000
Rectangular boundary conditions

net charge:   0.00000000

component 0 (CO2) lambda:  0 occupancy:  1 (1.000000)
    net charge:   0.00000000 [e]

Amount of molecules per component :
-------------------------------------------------------------------------------
Component 0 (CO2)
    molecules:      1.000000e+02 molecules  (1.000000e+02 +/- 0.000000e+00)
    number density: 1.471758e-02 molec./A^3 (1.427558e-02 +/- 0.000000e+00)
    density:        1.075292e+03 kg/m^3     (1.042998e+03 +/- 0.000000e+00)

Average pressure tensor: 
-------------------------------------------------------------------------------
-1.8362e+02  1.2691e+02 -2.1427e+02 +/- 0.0000e+00 0.0000e+00 0.0000e+00 [bar]
 1.2691e+02  6.9270e+01  3.4445e+02 +/- 0.0000e+00 0.0000e+00 0.0000e+00 [bar]
-2.1427e+02  3.4445e+02  2.0865e+02 +/- 0.0000e+00 0.0000e+00 0.0000e+00 [bar]
Ideal-gas pressure:   4.927396e+02 +/ 0.000000e+00 [bar]
Excess pressure:     -4.613064e+02 +/ 0.000000e+00 [bar]
Pressure:             3.143327e+01 +/ 0.000000e+00 [bar]

Total potential energy/kʙ  -1.542510e+05 (-1.488270e+05 +/- 0.000000e+00) [K]
-------------------------------------------------------------------------------
ExternalField-molecule
    Van der Waals/kʙ        0.000000e+00 ( 0.000000e+00 +/- 0.000000e+00) [K]
Framework-molecule
    Van der Waals/kʙ        0.000000e+00 ( 0.000000e+00 +/- 0.000000e+00) [K]
    Van der Waals (Tail)/kʙ 0.000000e+00 ( 0.000000e+00 +/- 0.000000e+00) [K]
    Coulombic Real/kʙ       0.000000e+00 ( 0.000000e+00 +/- 0.000000e+00) [K]
    Coulombic Fourier/kʙ    0.000000e+00 ( 0.000000e+00 +/- 0.000000e+00) [K]
Molecule-molecule
    Van der Waals/kʙ       -1.077469e+05 (-1.065853e+05 +/- 0.000000e+00) [K]
    Van der Waals (Tail)/kʙ-4.722208e+03 (-4.593497e+03 +/- 0.000000e+00) [K]
    Coulombic Real/kʙ      -3.329825e+04 (-2.989882e+04 +/- 0.000000e+00) [K]
    Coulombic Fourier/kʙ   -8.483712e+03 (-7.749320e+03 +/- 0.000000e+00) [K]
    Molecule Intra/kʙ       0.000000e+00 ( 0.000000e+00 +/- 0.000000e+00) [K]

Current cycle: 200 out of 5000
===============================================================================

Box:      18.99258   0.00000   0.00000  Average:  19.16936   0.00000   0.00000
           0.00000  18.99258   0.00000             0.00000  19.16936   0.00000
           0.00000   0.00000  18.99258             0.00000   0.00000  19.16936
Lengths:  18.99258  18.99258  18.99258  Average:  19.16936  19.16936  19.16936
Angles:   90.00000  90.00000  90.00000  Average:  90.00000  90.00000  90.00000
Rectangular boundary conditions

net charge:   0.00000000

component 0 (CO2) lambda:  0 occupancy:  1 (1.000000)
    net charge:   0.00000000 [e]

Amount of molecules per component :
-------------------------------------------------------------------------------
Component 0 (CO2)
    molecules:      1.000000e+02 molecules  (1.000000e+02 +/- 0.000000e+00)
    number density: 1.459649e-02 molec./A^3 (1.420324e-02 +/- 0.000000e+00)
    density:        1.066444e+03 kg/m^3     (1.037713e+03 +/- 0.000000e+00)

Average pressure tensor: 
-------------------------------------------------------------------------------
-2.3467e+01  5.2506e+01 -1.1726e+02 +/- 0.0000e+00 0.0000e+00 0.0000e+00 [bar]
 5.2506e+01 -6.9027e+00  8.0229e+01 +/- 0.0000e+00 0.0000e+00 0.0000e+00 [bar]
-1.1726e+02  8.0229e+01  2.8037e+02 +/- 0.0000e+00 0.0000e+00 0.0000e+00 [bar]
Ideal-gas pressure:   4.902428e+02 +/ 0.000000e+00 [bar]
Excess pressure:     -4.069105e+02 +/ 0.000000e+00 [bar]
Pressure:             8.333237e+01 +/ 0.000000e+00 [bar]

Total potential energy/kʙ  -1.531030e+05 (-1.475193e+05 +/- 0.000000e+00) [K]
-------------------------------------------------------------------------------
ExternalField-molecule
    Van der Waals/kʙ        0.000000e+00 ( 0.000000e+00 +/- 0.000000e+00) [K]
Framework-molecule
    Van der Waals/kʙ        0.000000e+00 ( 0.000000e+00 +/- 0.000000e+00) [K]
    Van der Waals (Tail)/kʙ 0.000000e+00 ( 0.000000e+00 +/- 0.000000e+00) [K]
    Coulombic Real/kʙ       0.000000e+00 ( 0.000000e+00 +/- 0.000000e+00) [K]
    Coulombic Fourier/kʙ    0.000000e+00 ( 0.000000e+00 +/- 0.000000e+00) [K]
Molecule-molecule
    Van der Waals/kʙ       -1.087357e+05 (-1.055987e+05 +/- 0.000000e+00) [K]
    Van der Waals (Tail)/kʙ-4.683355e+03 (-4.569880e+03 +/- 0.000000e+00) [K]
    Coulombic Real/kʙ      -3.168131e+04 (-2.973553e+04 +/- 0.000000e+00) [K]
    Coulombic Fourier/kʙ   -8.002565e+03 (-7.615156e+03 +/- 0.000000e+00) [K]
    Molecule Intra/kʙ       0.000000e+00 ( 0.000000e+00 +/- 0.000000e+00) [K]

Current cycle: 300 out of 5000
===============================================================================

Box:      18.79958   0.00000   0.00000  Average:  19.10090   0.00000   0.00000
           0.00000  18.79958   0.00000             0.00000  19.10090   0.00000
           0.00000   0.00000  18.79958             0.00000   0.00000  19.10090
Lengths:  18.79958  18.79958  18.79958  Average:  19.10090  19.10090  19.10090
Angles:   90.00000  90.00000  90.00000  Average:  90.00000  90.00000  90.00000
Rectangular boundary conditions

net charge:   0.00000000

component 0 (CO2) lambda:  0 occupancy:  1 (1.000000)
    net charge:   0.00000000 [e]

Amount of molecules per component :
-------------------------------------------------------------------------------
Component 0 (CO2)
    molecules:      1.000000e+02 molecules  (1.000000e+02 +/- 0.000000e+00)
    number density: 1.505065e-02 molec./A^3 (1.435755e-02 +/- 0.000000e+00)
    density:        1.099626e+03 kg/m^3     (1.048987e+03 +/- 0.000000e+00)

Average pressure tensor: 
-------------------------------------------------------------------------------
 9.0150e+01  1.3724e+02  5.5988e+01 +/- 0.0000e+00 0.0000e+00 0.0000e+00 [bar]
 1.3724e+02  8.7062e+01  1.1132e+02 +/- 0.0000e+00 0.0000e+00 0.0000e+00 [bar]
 5.5988e+01  1.1132e+02  1.5309e+02 +/- 0.0000e+00 0.0000e+00 0.0000e+00 [bar]
Ideal-gas pressure:   4.955689e+02 +/ 0.000000e+00 [bar]
Excess pressure:     -3.854682e+02 +/ 0.000000e+00 [bar]
Pressure:             1.101008e+02 +/ 0.000000e+00 [bar]

Total potential energy/kʙ  -1.587747e+05 (-1.499335e+05 +/- 0.000000e+00) [K]
-------------------------------------------------------------------------------
ExternalField-molecule
    Van der Waals/kʙ        0.000000e+00 ( 0.000000e+00 +/- 0.000000e+00) [K]
Framework-molecule
    Van der Waals/kʙ        0.000000e+00 ( 0.000000e+00 +/- 0.000000e+00) [K]
    Van der Waals (Tail)/kʙ 0.000000e+00 ( 0.000000e+00 +/- 0.000000e+00) [K]
    Coulombic Real/kʙ       0.000000e+00 ( 0.000000e+00 +/- 0.000000e+00) [K]
    Coulombic Fourier/kʙ    0.000000e+00 ( 0.000000e+00 +/- 0.000000e+00) [K]
Molecule-molecule
    Van der Waals/kʙ       -1.104435e+05 (-1.068912e+05 +/- 0.000000e+00) [K]
    Van der Waals (Tail)/kʙ-4.829075e+03 (-4.620690e+03 +/- 0.000000e+00) [K]
    Coulombic Real/kʙ      -3.541432e+04 (-3.074746e+04 +/- 0.000000e+00) [K]
    Coulombic Fourier/kʙ   -8.087833e+03 (-7.674238e+03 +/- 0.000000e+00) [K]
    Molecule Intra/kʙ       0.000000e+00 ( 0.000000e+00 +/- 0.000000e+00) [K]

Current cycle: 400 out of 5000
===============================================================================

Box:      18.87540   0.00000   0.00000  Average:  19.04268   0.00000   0.00000
           0.00000  18.87540   0.00000             0.00000  19.04268   0.00000
           0.00000   0.00000  18.87540             0.00000   0.00000  19.04268
Lengths:  18.87540  18.87540  18.87540  Average:  19.04268  19.04268  19.04268
Angles:   90.00000  90.00000  90.00000  Average:  90.00000  90.00000  90.00000
Rectangular boundary conditions

net charge:   0.00000000

component 0 (CO2) lambda:  0 occupancy:  1 (1.000000)
    net charge:   0.00000000 [e]

Amount of molecules per component :
-------------------------------------------------------------------------------
Component 0 (CO2)
    molecules:      1.000000e+02 molecules  (1.000000e+02 +/- 0.000000e+00)
    number density: 1.487003e-02 molec./A^3 (1.449068e-02 +/- 0.000000e+00)
    density:        1.086430e+03 kg/m^3     (1.058714e+03 +/- 0.000000e+00)

Average pressure tensor: 
-------------------------------------------------------------------------------
 1.9199e+02  8.0369e+01  1.1017e+02 +/- 0.0000e+00 0.0000e+00 0.0000e+00 [bar]
 8.0369e+01  1.4236e+01  1.2905e+02 +/- 0.0000e+00 0.0000e+00 0.0000e+00 [bar]
 1.1017e+02  1.2905e+02  1.6016e+02 +/- 0.0000e+00 0.0000e+00 0.0000e+00 [bar]
Ideal-gas pressure:   5.001639e+02 +/ 0.000000e+00 [bar]
Excess pressure:     -3.780363e+02 +/ 0.000000e+00 [bar]
Pressure:             1.221276e+02 +/ 0.000000e+00 [bar]

Total potential energy/kʙ  -1.606520e+05 (-1.520806e+05 +/- 0.000000e+00) [K]
-------------------------------------------------------------------------------
ExternalField-molecule
    Van der Waals/kʙ        0.000000e+00 ( 0.000000e+00 +/- 0.000000e+00) [K]
Framework-molecule
    Van der Waals/kʙ        0.000000e+00 ( 0.000000e+00 +/- 0.000000e+00) [K]
    Van der Waals (Tail)/kʙ 0.000000e+00 ( 0.000000e+00 +/- 0.000000e+00) [K]
    Coulombic Real/kʙ       0.000000e+00 ( 0.000000e+00 +/- 0.000000e+00) [K]
    Coulombic Fourier/kʙ    0.000000e+00 ( 0.000000e+00 +/- 0.000000e+00) [K]
Molecule-molecule
    Van der Waals/kʙ       -1.113730e+05 (-1.081690e+05 +/- 0.000000e+00) [K]
    Van der Waals (Tail)/kʙ-4.771121e+03 (-4.656734e+03 +/- 0.000000e+00) [K]
    Coulombic Real/kʙ      -3.579732e+04 (-3.148805e+04 +/- 0.000000e+00) [K]
    Coulombic Fourier/kʙ   -8.710556e+03 (-7.766881e+03 +/- 0.000000e+00) [K]
    Molecule Intra/kʙ       0.000000e+00 ( 0.000000e+00 +/- 0.000000e+00) [K]

Current cycle: 500 out of 5000
===============================================================================

Box:      19.02868   0.00000   0.00000  Average:  19.03202   0.00000   0.00000
           0.00000  19.02868   0.00000             0.00000  19.03202   0.00000
           0.00000   0.00000  19.02868             0.00000   0.00000  19.03202
Lengths:  19.02868  19.02868  19.02868  Average:  19.03202  19.03202  19.03202
Angles:   90.00000  90.00000  90.00000  Average:  90.00000  90.00000  90.00000
Rectangular boundary conditions

net charge:   0.00000000

component 0 (CO2) lambda:  0 occupancy:  1 (1.000000)
    net charge:   0.00000000 [e]

Amount of molecules per component :
-------------------------------------------------------------------------------
Component 0 (CO2)
    molecules:      1.000000e+02 molecules  (1.000000e+02 +/- 0.000000e+00)
    number density: 1.451355e-02 molec./A^3 (1.451346e-02 +/- 0.000000e+00)
    density:        1.060385e+03 kg/m^3     (1.060378e+03 +/- 0.000000e+00)

Average pressure tensor: 
-------------------------------------------------------------------------------
 1.6510e+02  5.0910e+00  3.7540e+01 +/- 0.0000e+00 0.0000e+00 0.0000e+00 [bar]
 5.0910e+00  5.0560e+01  1.3867e+02 +/- 0.0000e+00 0.0000e+00 0.0000e+00 [bar]
 3.7540e+01  1.3867e+02  1.2099e+02 +/- 0.0000e+00 0.0000e+00 0.0000e+00 [bar]
Ideal-gas pressure:   5.009503e+02 +/ 0.000000e+00 [bar]
Excess pressure:     -3.887331e+02 +/ 0.000000e+00 [bar]
Pressure:             1.122172e+02 +/ 0.000000e+00 [bar]

Total potential energy/kʙ  -1.532474e+05 (-1.527610e+05 +/- 0.000000e+00) [K]
-------------------------------------------------------------------------------
ExternalField-molecule
    Van der Waals/kʙ        0.000000e+00 ( 0.000000e+00 +/- 0.000000e+00) [K]
Framework-molecule
    Van der Waals/kʙ        0.000000e+00 ( 0.000000e+00 +/- 0.000000e+00) [K]
    Van der Waals (Tail)/kʙ 0.000000e+00 ( 0.000000e+00 +/- 0.000000e+00) [K]
    Coulombic Real/kʙ       0.000000e+00 ( 0.000000e+00 +/- 0.000000e+00) [K]
    Coulombic Fourier/kʙ    0.000000e+00 ( 0.000000e+00 +/- 0.000000e+00) [K]
Molecule-molecule
    Van der Waals/kʙ       -1.086082e+05 (-1.086555e+05 +/- 0.000000e+00) [K]
    Van der Waals (Tail)/kʙ-4.656745e+03 (-4.665737e+03 +/- 0.000000e+00) [K]
    Coulombic Real/kʙ      -3.206803e+04 (-3.164987e+04 +/- 0.000000e+00) [K]
    Coulombic Fourier/kʙ   -7.914357e+03 (-7.789818e+03 +/- 0.000000e+00) [K]
    Molecule Intra/kʙ       0.000000e+00 ( 0.000000e+00 +/- 0.000000e+00) [K]

Current cycle: 600 out of 5000
===============================================================================

Box:      18.79726   0.00000   0.00000  Average:  19.01902   0.00000   0.00000
           0.00000  18.79726   0.00000             0.00000  19.01902   0.00000
           0.00000   0.00000  18.79726             0.00000   0.00000  19.01902
Lengths:  18.79726  18.79726  18.79726  Average:  19.01902  19.01902  19.01902
Angles:   90.00000  90.00000  90.00000  Average:  90.00000  90.00000  90.00000
Rectangular boundary conditions

net charge:   0.00000000

component 0 (CO2) lambda:  0 occupancy:  1 (1.000000)
    net charge:   0.00000000 [e]

Amount of molecules per component :
-------------------------------------------------------------------------------
Component 0 (CO2)
    molecules:      1.000000e+02 molecules  (1.000000e+02 +/- 0.000000e+00)
    number density: 1.505622e-02 molec./A^3 (1.454241e-02 +/- 0.000000e+00)
    density:        1.100033e+03 kg/m^3     (1.062493e+03 +/- 0.000000e+00)

Average pressure tensor: 
-------------------------------------------------------------------------------
 1.3480e+02  5.4595e+00  2.8392e+00 +/- 0.0000e+00 0.0000e+00 0.0000e+00 [bar]
 5.4595e+00  1.4366e+01  1.7281e+02 +/- 0.0000e+00 0.0000e+00 0.0000e+00 [bar]
 2.8392e+00  1.7281e+02  7.4139e+01 +/- 0.0000e+00 0.0000e+00 0.0000e+00 [bar]
Ideal-gas pressure:   5.019496e+02 +/ 0.000000e+00 [bar]
Excess pressure:     -4.275145e+02 +/ 0.000000e+00 [bar]
Pressure:             7.443508e+01 +/ 0.000000e+00 [bar]

Total potential energy/kʙ  -1.617293e+05 (-1.533168e+05 +/- 0.000000e+00) [K]
-------------------------------------------------------------------------------
ExternalField-molecule
    Van der Waals/kʙ        0.000000e+00 ( 0.000000e+00 +/- 0.000000e+00) [K]
Framework-molecule
    Van der Waals/kʙ        0.000000e+00 ( 0.000000e+00 +/- 0.000000e+00) [K]
    Van der Waals (Tail)/kʙ 0.000000e+00 ( 0.000000e+00 +/- 0.000000e+00) [K]
    Coulombic Real/kʙ       0.000000e+00 ( 0.000000e+00 +/- 0.000000e+00) [K]
    Coulombic Fourier/kʙ    0.000000e+00 ( 0.000000e+00 +/- 0.000000e+00) [K]
Molecule-molecule
    Van der Waals/kʙ       -1.150762e+05 (-1.090037e+05 +/- 0.000000e+00) [K]
    Van der Waals (Tail)/kʙ-4.830863e+03 (-4.674131e+03 +/- 0.000000e+00) [K]
    Coulombic Real/kʙ      -3.373368e+04 (-3.182418e+04 +/- 0.000000e+00) [K]
    Coulombic Fourier/kʙ   -8.088588e+03 (-7.814809e+03 +/- 0.000000e+00) [K]
    Molecule Intra/kʙ       0.000000e+00 ( 0.000000e+00 +/- 0.000000e+00) [K]

Current cycle: 700 out of 5000
===============================================================================

Box:      18.96701   0.00000   0.00000  Average:  18.99518   0.00000   0.00000
           0.00000  18.96701   0.00000             0.00000  18.99518   0.00000
           0.00000   0.00000  18.96701             0.00000   0.00000  18.99518
Lengths:  18.96701  18.96701  18.96701  Average:  18.99518  18.99518  18.99518
Angles:   90.00000  90.00000  90.00000  Average:  90.00000  90.00000  90.00000
Rectangular boundary conditions

net charge:   0.00000000

component 0 (CO2) lambda:  0 occupancy:  1 (1.000000)
    net charge:   0.00000000 [e]

Amount of molecules per component :
-------------------------------------------------------------------------------
Component 0 (CO2)
    molecules:      1.000000e+02 molecules  (1.000000e+02 +/- 0.000000e+00)
    number density: 1.465560e-02 molec./A^3 (1.459763e-02 +/- 0.000000e+00)
    density:        1.070763e+03 kg/m^3     (1.066528e+03 +/- 0.000000e+00)

Average pressure tensor: 
-------------------------------------------------------------------------------
 1.2675e+02 -1.2756e+01  1.2157e+01 +/- 0.0000e+00 0.0000e+00 0.0000e+00 [bar]
-1.2756e+01  6.4947e+01  1.6007e+02 +/- 0.0000e+00 0.0000e+00 0.0000e+00 [bar]
 1.2157e+01  1.6007e+02  6.0074e+01 +/- 0.0000e+00 0.0000e+00 0.0000e+00 [bar]
Ideal-gas pressure:   5.038555e+02 +/ 0.000000e+00 [bar]
Excess pressure:     -4.199332e+02 +/ 0.000000e+00 [bar]
Pressure:             8.392234e+01 +/ 0.000000e+00 [bar]

Total potential energy/kʙ  -1.508546e+05 (-1.532812e+05 +/- 0.000000e+00) [K]
-------------------------------------------------------------------------------
ExternalField-molecule
    Van der Waals/kʙ        0.000000e+00 ( 0.000000e+00 +/- 0.000000e+00) [K]
Framework-molecule
    Van der Waals/kʙ        0.000000e+00 ( 0.000000e+00 +/- 0.000000e+00) [K]
    Van der Waals (Tail)/kʙ 0.000000e+00 ( 0.000000e+00 +/- 0.000000e+00) [K]
    Coulombic Real/kʙ       0.000000e+00 ( 0.000000e+00 +/- 0.000000e+00) [K]
    Coulombic Fourier/kʙ    0.000000e+00 ( 0.000000e+00 +/- 0.000000e+00) [K]
Molecule-molecule
    Van der Waals/kʙ       -1.085509e+05 (-1.093546e+05 +/- 0.000000e+00) [K]
    Van der Waals (Tail)/kʙ-4.702322e+03 (-4.686699e+03 +/- 0.000000e+00) [K]
    Coulombic Real/kʙ      -3.018110e+04 (-3.148648e+04 +/- 0.000000e+00) [K]
    Coulombic Fourier/kʙ   -7.420328e+03 (-7.753408e+03 +/- 0.000000e+00) [K]
    Molecule Intra/kʙ       0.000000e+00 ( 0.000000e+00 +/- 0.000000e+00) [K]

Current cycle: 800 out of 5000
===============================================================================

Box:      18.76671   0.00000   0.00000  Average:  18.97935   0.00000   0.00000
           0.00000  18.76671   0.00000             0.00000  18.97935   0.00000
           0.00000   0.00000  18.76671             0.00000   0.00000  18.97935
Lengths:  18.76671  18.76671  18.76671  Average:  18.97935  18.97935  18.97935
Angles:   90.00000  90.00000  90.00000  Average:  90.00000  90.00000  90.00000
Rectangular boundary conditions

net charge:   0.00000000

component 0 (CO2) lambda:  0 occupancy:  1 (1.000000)
    net charge:   0.00000000 [e]

Amount of molecules per component :
-------------------------------------------------------------------------------
Component 0 (CO2)
    molecules:      1.000000e+02 molecules  (1.000000e+02 +/- 0.000000e+00)
    number density: 1.512989e-02 molec./A^3 (1.463387e-02 +/- 0.000000e+00)
    density:        1.105416e+03 kg/m^3     (1.069176e+03 +/- 0.000000e+00)

Average pressure tensor: 
-------------------------------------------------------------------------------
 1.3814e+02  2.9238e+01 -1.1520e+00 +/- 0.0000e+00 0.0000e+00 0.0000e+00 [bar]
 2.9238e+01  5.9639e+01  9.7230e+01 +/- 0.0000e+00 0.0000e+00 0.0000e+00 [bar]
-1.1520e+00  9.7230e+01  6.2175e+01 +/- 0.0000e+00 0.0000e+00 0.0000e+00 [bar]
Ideal-gas pressure:   5.051064e+02 +/ 0.000000e+00 [bar]
Excess pressure:     -4.184536e+02 +/ 0.000000e+00 [bar]
Pressure:             8.665280e+01 +/ 0.000000e+00 [bar]

Total potential energy/kʙ  -1.608627e+05 (-1.535783e+05 +/- 0.000000e+00) [K]
-------------------------------------------------------------------------------
ExternalField-molecule
    Van der Waals/kʙ        0.000000e+00 ( 0.000000e+00 +/- 0.000000e+00) [K]
Framework-molecule
    Van der Waals/kʙ        0.000000e+00 ( 0.000000e+00 +/- 0.000000e+00) [K]
    Van der Waals (Tail)/kʙ 0.000000e+00 ( 0.000000e+00 +/- 0.000000e+00) [K]
    Coulombic Real/kʙ       0.000000e+00 ( 0.000000e+00 +/- 0.000000e+00) [K]
    Coulombic Fourier/kʙ    0.000000e+00 ( 0.000000e+00 +/- 0.000000e+00) [K]
Molecule-molecule
    Van der Waals/kʙ       -1.120509e+05 (-1.095626e+05 +/- 0.000000e+00) [K]
    Van der Waals (Tail)/kʙ-4.854499e+03 (-4.698787e+03 +/- 0.000000e+00) [K]
    Coulombic Real/kʙ      -3.568376e+04 (-3.155326e+04 +/- 0.000000e+00) [K]
    Coulombic Fourier/kʙ   -8.273539e+03 (-7.763686e+03 +/- 0.000000e+00) [K]
    Molecule Intra/kʙ       0.000000e+00 ( 0.000000e+00 +/- 0.000000e+00) [K]

Current cycle: 900 out of 5000
===============================================================================

Box:      18.61846   0.00000   0.00000  Average:  18.95236   0.00000   0.00000
           0.00000  18.61846   0.00000             0.00000  18.95236   0.00000
           0.00000   0.00000  18.61846             0.00000   0.00000  18.95236
Lengths:  18.61846  18.61846  18.61846  Average:  18.95236  18.95236  18.95236
Angles:   90.00000  90.00000  90.00000  Average:  90.00000  90.00000  90.00000
Rectangular boundary conditions

net charge:   0.00000000

component 0 (CO2) lambda:  0 occupancy:  1 (1.000000)
    net charge:   0.00000000 [e]

Amount of molecules per component :
-------------------------------------------------------------------------------
Component 0 (CO2)
    molecules:      1.000000e+02 molecules  (1.000000e+02 +/- 0.000000e+00)
    number density: 1.549419e-02 molec./A^3 (1.469732e-02 +/- 0.000000e+00)
    density:        1.132032e+03 kg/m^3     (1.073811e+03 +/- 0.000000e+00)

Average pressure tensor: 
-------------------------------------------------------------------------------
 1.3654e+02  5.7464e+01 -1.9404e+01 +/- 0.0000e+00 0.0000e+00 0.0000e+00 [bar]
 5.7464e+01  4.4035e+01  1.1623e+02 +/- 0.0000e+00 0.0000e+00 0.0000e+00 [bar]
-1.9404e+01  1.1623e+02  8.7241e+01 +/- 0.0000e+00 0.0000e+00 0.0000e+00 [bar]
Ideal-gas pressure:   5.072963e+02 +/ 0.000000e+00 [bar]
Excess pressure:     -4.180245e+02 +/ 0.000000e+00 [bar]
Pressure:             8.927187e+01 +/ 0.000000e+00 [bar]

Total potential energy/kʙ  -1.629616e+05 (-1.542678e+05 +/- 0.000000e+00) [K]
-------------------------------------------------------------------------------
ExternalField-molecule
    Van der Waals/kʙ        0.000000e+00 ( 0.000000e+00 +/- 0.000000e+00) [K]
Framework-molecule
    Van der Waals/kʙ        0.000000e+00 ( 0.000000e+00 +/- 0.000000e+00) [K]
    Van der Waals (Tail)/kʙ 0.000000e+00 ( 0.000000e+00 +/- 0.000000e+00) [K]
    Coulombic Real/kʙ       0.000000e+00 ( 0.000000e+00 +/- 0.000000e+00) [K]
    Coulombic Fourier/kʙ    0.000000e+00 ( 0.000000e+00 +/- 0.000000e+00) [K]
Molecule-molecule
    Van der Waals/kʙ       -1.158128e+05 (-1.100845e+05 +/- 0.000000e+00) [K]
    Van der Waals (Tail)/kʙ-4.971388e+03 (-4.718661e+03 +/- 0.000000e+00) [K]
    Coulombic Real/kʙ      -3.490514e+04 (-3.171244e+04 +/- 0.000000e+00) [K]
    Coulombic Fourier/kʙ   -7.272206e+03 (-7.752206e+03 +/- 0.000000e+00) [K]
    Molecule Intra/kʙ       0.000000e+00 ( 0.000000e+00 +/- 0.000000e+00) [K]

Current cycle: 1000 out of 5000
===============================================================================

Box:      18.47825   0.00000   0.00000  Average:  18.92011   0.00000   0.00000
           0.00000  18.47825   0.00000             0.00000  18.92011   0.00000
           0.00000   0.00000  18.47825             0.00000   0.00000  18.92011
Lengths:  18.47825  18.47825  18.47825  Average:  18.92011  18.92011  18.92011
Angles:   90.00000  90.00000  90.00000  Average:  90.00000  90.00000  90.00000
Rectangular boundary conditions

net charge:   0.00000000

component 0 (CO2) lambda:  0 occupancy:  1 (1.000000)
    net charge:   0.00000000 [e]

Amount of molecules per component :
-------------------------------------------------------------------------------
Component 0 (CO2)
    molecules:      1.000000e+02 molecules  (1.000000e+02 +/- 0.000000e+00)
    number density: 1.584957e-02 molec./A^3 (1.477435e-02 +/- 0.000000e+00)
    density:        1.157996e+03 kg/m^3     (1.079439e+03 +/- 0.000000e+00)

Average pressure tensor: 
-------------------------------------------------------------------------------
 1.0306e+02  6.8856e+01 -1.1543e+01 +/- 0.0000e+00 0.0000e+00 0.0000e+00 [bar]
 6.8856e+01  7.3838e+01  1.1755e+02 +/- 0.0000e+00 0.0000e+00 0.0000e+00 [bar]
-1.1543e+01  1.1755e+02  8.6401e+01 +/- 0.0000e+00 0.0000e+00 0.0000e+00 [bar]
Ideal-gas pressure:   5.099553e+02 +/ 0.000000e+00 [bar]
Excess pressure:     -4.221886e+02 +/ 0.000000e+00 [bar]
Pressure:             8.776672e+01 +/ 0.000000e+00 [bar]

Total potential energy/kʙ  -1.669994e+05 (-1.552571e+05 +/- 0.000000e+00) [K]
-------------------------------------------------------------------------------
ExternalField-molecule
    Van der Waals/kʙ        0.000000e+00 ( 0.000000e+00 +/- 0.000000e+00) [K]
Framework-molecule
    Van der Waals/kʙ        0.000000e+00 ( 0.000000e+00 +/- 0.000000e+00) [K]
    Van der Waals (Tail)/kʙ 0.000000e+00 ( 0.000000e+00 +/- 0.000000e+00) [K]
    Coulombic Real/kʙ       0.000000e+00 ( 0.000000e+00 +/- 0.000000e+00) [K]
    Coulombic Fourier/kʙ    0.000000e+00 ( 0.000000e+00 +/- 0.000000e+00) [K]
Molecule-molecule
    Van der Waals/kʙ       -1.157921e+05 (-1.107116e+05 +/- 0.000000e+00) [K]
    Van der Waals (Tail)/kʙ-5.085411e+03 (-4.742102e+03 +/- 0.000000e+00) [K]
    Coulombic Real/kʙ      -3.786740e+04 (-3.202343e+04 +/- 0.000000e+00) [K]
    Coulombic Fourier/kʙ   -8.254500e+03 (-7.779949e+03 +/- 0.000000e+00) [K]
    Molecule Intra/kʙ       0.000000e+00 ( 0.000000e+00 +/- 0.000000e+00) [K]

Current cycle: 1100 out of 5000
===============================================================================

Box:      18.88287   0.00000   0.00000  Average:  18.90616   0.00000   0.00000
           0.00000  18.88287   0.00000             0.00000  18.90616   0.00000
           0.00000   0.00000  18.88287             0.00000   0.00000  18.90616
Lengths:  18.88287  18.88287  18.88287  Average:  18.90616  18.90616  18.90616
Angles:   90.00000  90.00000  90.00000  Average:  90.00000  90.00000  90.00000
Rectangular boundary conditions

net charge:   0.00000000

component 0 (CO2) lambda:  0 occupancy:  1 (1.000000)
    net charge:   0.00000000 [e]

Amount of molecules per component :
-------------------------------------------------------------------------------
Component 0 (CO2)
    molecules:      1.000000e+02 molecules  (1.000000e+02 +/- 0.000000e+00)
    number density: 1.485239e-02 molec./A^3 (1.480718e-02 +/- 0.000000e+00)
    density:        1.085141e+03 kg/m^3     (1.081838e+03 +/- 0.000000e+00)

Average pressure tensor: 
-------------------------------------------------------------------------------
 1.0502e+02  5.9766e+01 -1.5243e+01 +/- 0.0000e+00 0.0000e+00 0.0000e+00 [bar]
 5.9766e+01  1.1942e+02  8.0310e+01 +/- 0.0000e+00 0.0000e+00 0.0000e+00 [bar]
-1.5243e+01  8.0310e+01  9.6317e+01 +/- 0.0000e+00 0.0000e+00 0.0000e+00 [bar]
Ideal-gas pressure:   5.110884e+02 +/ 0.000000e+00 [bar]
Excess pressure:     -4.041690e+02 +/ 0.000000e+00 [bar]
Pressure:             1.069194e+02 +/ 0.000000e+00 [bar]

Total potential energy/kʙ  -1.509625e+05 (-1.557656e+05 +/- 0.000000e+00) [K]
-------------------------------------------------------------------------------
ExternalField-molecule
    Van der Waals/kʙ        0.000000e+00 ( 0.000000e+00 +/- 0.000000e+00) [K]
Framework-molecule
    Van der Waals/kʙ        0.000000e+00 ( 0.000000e+00 +/- 0.000000e+00) [K]
    Van der Waals (Tail)/kʙ 0.000000e+00 ( 0.000000e+00 +/- 0.000000e+00) [K]
    Coulombic Real/kʙ       0.000000e+00 ( 0.000000e+00 +/- 0.000000e+00) [K]
    Coulombic Fourier/kʙ    0.000000e+00 ( 0.000000e+00 +/- 0.000000e+00) [K]
Molecule-molecule
    Van der Waals/kʙ       -1.085732e+05 (-1.109403e+05 +/- 0.000000e+00) [K]
    Van der Waals (Tail)/kʙ-4.765461e+03 (-4.752839e+03 +/- 0.000000e+00) [K]
    Coulombic Real/kʙ      -3.033816e+04 (-3.225991e+04 +/- 0.000000e+00) [K]
    Coulombic Fourier/kʙ   -7.285613e+03 (-7.812539e+03 +/- 0.000000e+00) [K]
    Molecule Intra/kʙ       0.000000e+00 ( 0.000000e+00 +/- 0.000000e+00) [K]

Current cycle: 1200 out of 5000
===============================================================================

Box:      18.93550   0.00000   0.00000  Average:  18.91595   0.00000   0.00000
           0.00000  18.93550   0.00000             0.00000  18.91595   0.00000
           0.00000   0.00000  18.93550             0.00000   0.00000  18.91595
Lengths:  18.93550  18.93550  18.93550  Average:  18.91595  18.91595  18.91595
Angles:   90.00000  90.00000  90.00000  Average:  90.00000  90.00000  90.00000
Rectangular boundary conditions

net charge:   0.00000000

component 0 (CO2) lambda:  0 occupancy:  1 (1.000000)
    net charge:   0.00000000 [e]

Amount of molecules per component :
-------------------------------------------------------------------------------
Component 0 (CO2)
    molecules:      1.000000e+02 molecules  (1.000000e+02 +/- 0.000000e+00)
    number density: 1.472888e-02 molec./A^3 (1.478382e-02 +/- 0.000000e+00)
    density:        1.076117e+03 kg/m^3     (1.080131e+03 +/- 0.000000e+00)

Average pressure tensor: 
-------------------------------------------------------------------------------
 1.0789e+02  4.7009e+01 -2.6863e+01 +/- 0.0000e+00 0.0000e+00 0.0000e+00 [bar]
 4.7009e+01  1.4162e+02  3.2003e+01 +/- 0.0000e+00 0.0000e+00 0.0000e+00 [bar]
-2.6863e+01  3.2003e+01  9.6512e+01 +/- 0.0000e+00 0.0000e+00 0.0000e+00 [bar]
Ideal-gas pressure:   5.102822e+02 +/ 0.000000e+00 [bar]
Excess pressure:     -3.949443e+02 +/ 0.000000e+00 [bar]
Pressure:             1.153378e+02 +/ 0.000000e+00 [bar]

Total potential energy/kʙ  -1.542406e+05 (-1.555456e+05 +/- 0.000000e+00) [K]
-------------------------------------------------------------------------------
ExternalField-molecule
    Van der Waals/kʙ        0.000000e+00 ( 0.000000e+00 +/- 0.000000e+00) [K]
Framework-molecule
    Van der Waals/kʙ        0.000000e+00 ( 0.000000e+00 +/- 0.000000e+00) [K]
    Van der Waals (Tail)/kʙ 0.000000e+00 ( 0.000000e+00 +/- 0.000000e+00) [K]
    Coulombic Real/kʙ       0.000000e+00 ( 0.000000e+00 +/- 0.000000e+00) [K]
    Coulombic Fourier/kʙ    0.000000e+00 ( 0.000000e+00 +/- 0.000000e+00) [K]
Molecule-molecule
    Van der Waals/kʙ       -1.085799e+05 (-1.107461e+05 +/- 0.000000e+00) [K]
    Van der Waals (Tail)/kʙ-4.725834e+03 (-4.745796e+03 +/- 0.000000e+00) [K]
    Coulombic Real/kʙ      -3.328994e+04 (-3.226164e+04 +/- 0.000000e+00) [K]
    Coulombic Fourier/kʙ   -7.645001e+03 (-7.792025e+03 +/- 0.000000e+00) [K]
    Molecule Intra/kʙ       0.000000e+00 ( 0.000000e+00 +/- 0.000000e+00) [K]

Current cycle: 1300 out of 5000
===============================================================================

Box:      18.58353   0.00000   0.00000  Average:  18.90904   0.00000   0.00000
           0.00000  18.58353   0.00000             0.00000  18.90904   0.00000
           0.00000   0.00000  18.58353             0.00000   0.00000  18.90904
Lengths:  18.58353  18.58353  18.58353  Average:  18.90904  18.90904  18.90904
Angles:   90.00000  90.00000  90.00000  Average:  90.00000  90.00000  90.00000
Rectangular boundary conditions

net charge:   0.00000000

component 0 (CO2) lambda:  0 occupancy:  1 (1.000000)
    net charge:   0.00000000 [e]

Amount of molecules per component :
-------------------------------------------------------------------------------
Component 0 (CO2)
    molecules:      1.000000e+02 molecules  (1.000000e+02 +/- 0.000000e+00)
    number density: 1.558172e-02 molec./A^3 (1.479990e-02 +/- 0.000000e+00)
    density:        1.138427e+03 kg/m^3     (1.081306e+03 +/- 0.000000e+00)

Average pressure tensor: 
-------------------------------------------------------------------------------
 1.2906e+02  3.6199e+01 -2.8616e+01 +/- 0.0000e+00 0.0000e+00 0.0000e+00 [bar]
 3.6199e+01  1.5661e+02  2.2081e+01 +/- 0.0000e+00 0.0000e+00 0.0000e+00 [bar]
-2.8616e+01  2.2081e+01  1.1459e+02 +/- 0.0000e+00 0.0000e+00 0.0000e+00 [bar]
Ideal-gas pressure:   5.108372e+02 +/ 0.000000e+00 [bar]
Excess pressure:     -3.774170e+02 +/ 0.000000e+00 [bar]
Pressure:             1.334202e+02 +/ 0.000000e+00 [bar]

Total potential energy/kʙ  -1.649969e+05 (-1.557263e+05 +/- 0.000000e+00) [K]
-------------------------------------------------------------------------------
ExternalField-molecule
    Van der Waals/kʙ        0.000000e+00 ( 0.000000e+00 +/- 0.000000e+00) [K]
Framework-molecule
    Van der Waals/kʙ        0.000000e+00 ( 0.000000e+00 +/- 0.000000e+00) [K]
    Van der Waals (Tail)/kʙ 0.000000e+00 ( 0.000000e+00 +/- 0.000000e+00) [K]
    Coulombic Real/kʙ       0.000000e+00 ( 0.000000e+00 +/- 0.000000e+00) [K]
    Coulombic Fourier/kʙ    0.000000e+00 ( 0.000000e+00 +/- 0.000000e+00) [K]
Molecule-molecule
    Van der Waals/kʙ       -1.175187e+05 (-1.108208e+05 +/- 0.000000e+00) [K]
    Van der Waals (Tail)/kʙ-4.999472e+03 (-4.752477e+03 +/- 0.000000e+00) [K]
    Coulombic Real/kʙ      -3.375752e+04 (-3.233389e+04 +/- 0.000000e+00) [K]
    Coulombic Fourier/kʙ   -8.721207e+03 (-7.819067e+03 +/- 0.000000e+00) [K]
    Molecule Intra/kʙ       0.000000e+00 ( 0.000000e+00 +/- 0.000000e+00) [K]

Current cycle: 1400 out of 5000
===============================================================================

Box:      18.85032   0.00000   0.00000  Average:  18.90356   0.00000   0.00000
           0.00000  18.85032   0.00000             0.00000  18.90356   0.00000
           0.00000   0.00000  18.85032             0.00000   0.00000  18.90356
Lengths:  18.85032  18.85032  18.85032  Average:  18.90356  18.90356  18.90356
Angles:   90.00000  90.00000  90.00000  Average:  90.00000  90.00000  90.00000
Rectangular boundary conditions

net charge:   0.00000000

component 0 (CO2) lambda:  0 occupancy:  1 (1.000000)
    net charge:   0.00000000 [e]

Amount of molecules per component :
-------------------------------------------------------------------------------
Component 0 (CO2)
    molecules:      1.000000e+02 molecules  (1.000000e+02 +/- 0.000000e+00)
    number density: 1.492946e-02 molec./A^3 (1.481247e-02 +/- 0.000000e+00)
    density:        1.090772e+03 kg/m^3     (1.082224e+03 +/- 0.000000e+00)

Average pressure tensor: 
-------------------------------------------------------------------------------
 1.4306e+02  3.3966e+01 -3.9140e+01 +/- 0.0000e+00 0.0000e+00 0.0000e+00 [bar]
 3.3966e+01  1.6228e+02  2.8053e+01 +/- 0.0000e+00 0.0000e+00 0.0000e+00 [bar]
-3.9140e+01  2.8053e+01  1.2176e+02 +/- 0.0000e+00 0.0000e+00 0.0000e+00 [bar]
Ideal-gas pressure:   5.112709e+02 +/ 0.000000e+00 [bar]
Excess pressure:     -3.689022e+02 +/ 0.000000e+00 [bar]
Pressure:             1.423687e+02 +/ 0.000000e+00 [bar]

Total potential energy/kʙ  -1.537190e+05 (-1.558776e+05 +/- 0.000000e+00) [K]
-------------------------------------------------------------------------------
ExternalField-molecule
    Van der Waals/kʙ        0.000000e+00 ( 0.000000e+00 +/- 0.000000e+00) [K]
Framework-molecule
    Van der Waals/kʙ        0.000000e+00 ( 0.000000e+00 +/- 0.000000e+00) [K]
    Van der Waals (Tail)/kʙ 0.000000e+00 ( 0.000000e+00 +/- 0.000000e+00) [K]
    Coulombic Real/kʙ       0.000000e+00 ( 0.000000e+00 +/- 0.000000e+00) [K]
    Coulombic Fourier/kʙ    0.000000e+00 ( 0.000000e+00 +/- 0.000000e+00) [K]
Molecule-molecule
    Van der Waals/kʙ       -1.089235e+05 (-1.108087e+05 +/- 0.000000e+00) [K]
    Van der Waals (Tail)/kʙ-4.790190e+03 (-4.756227e+03 +/- 0.000000e+00) [K]
    Coulombic Real/kʙ      -3.221135e+04 (-3.245254e+04 +/- 0.000000e+00) [K]
    Coulombic Fourier/kʙ   -7.793973e+03 (-7.860074e+03 +/- 0.000000e+00) [K]
    Molecule Intra/kʙ       0.000000e+00 ( 0.000000e+00 +/- 0.000000e+00) [K]

Current cycle: 1500 out of 5000
===============================================================================

Box:      18.75405   0.00000   0.00000  Average:  18.90665   0.00000   0.00000
           0.00000  18.75405   0.00000             0.00000  18.90665   0.00000
           0.00000   0.00000  18.75405             0.00000   0.00000  18.90665
Lengths:  18.75405  18.75405  18.75405  Average:  18.90665  18.90665  18.90665
Angles:   90.00000  90.00000  90.00000  Average:  90.00000  90.00000  90.00000
Rectangular boundary conditions

net charge:   0.00000000

component 0 (CO2) lambda:  0 occupancy:  1 (1.000000)
    net charge:   0.00000000 [e]

Amount of molecules per component :
-------------------------------------------------------------------------------
Component 0 (CO2)
    molecules:      1.000000e+02 molecules  (1.000000e+02 +/- 0.000000e+00)
    number density: 1.516054e-02 molec./A^3 (1.480481e-02 +/- 0.000000e+00)
    density:        1.107655e+03 kg/m^3     (1.081665e+03 +/- 0.000000e+00)

Average pressure tensor: 
-------------------------------------------------------------------------------
 1.4660e+02  2.7135e+01 -4.6800e+01 +/- 0.0000e+00 0.0000e+00 0.0000e+00 [bar]
 2.7135e+01  1.2818e+02  3.0962e+01 +/- 0.0000e+00 0.0000e+00 0.0000e+00 [bar]
-4.6800e+01  3.0962e+01  1.2927e+02 +/- 0.0000e+00 0.0000e+00 0.0000e+00 [bar]
Ideal-gas pressure:   5.110066e+02 +/ 0.000000e+00 [bar]
Excess pressure:     -3.763214e+02 +/ 0.000000e+00 [bar]
Pressure:             1.346851e+02 +/ 0.000000e+00 [bar]

Total potential energy/kʙ  -1.512073e+05 (-1.556386e+05 +/- 0.000000e+00) [K]
-------------------------------------------------------------------------------
ExternalField-molecule
    Van der Waals/kʙ        0.000000e+00 ( 0.000000e+00 +/- 0.000000e+00) [K]
Framework-molecule
    Van der Waals/kʙ        0.000000e+00 ( 0.000000e+00 +/- 0.000000e+00) [K]
    Van der Waals (Tail)/kʙ 0.000000e+00 ( 0.000000e+00 +/- 0.000000e+00) [K]
    Coulombic Real/kʙ       0.000000e+00 ( 0.000000e+00 +/- 0.000000e+00) [K]
    Coulombic Fourier/kʙ    0.000000e+00 ( 0.000000e+00 +/- 0.000000e+00) [K]
Molecule-molecule
    Van der Waals/kʙ       -1.091391e+05 (-1.107293e+05 +/- 0.000000e+00) [K]
    Van der Waals (Tail)/kʙ-4.864333e+03 (-4.753788e+03 +/- 0.000000e+00) [K]
    Coulombic Real/kʙ      -2.950432e+04 (-3.231662e+04 +/- 0.000000e+00) [K]
    Coulombic Fourier/kʙ   -7.699493e+03 (-7.838953e+03 +/- 0.000000e+00) [K]
    Molecule Intra/kʙ       0.000000e+00 ( 0.000000e+00 +/- 0.000000e+00) [K]

Current cycle: 1600 out of 5000
===============================================================================

Box:      18.63305   0.00000   0.00000  Average:  18.89616   0.00000   0.00000
           0.00000  18.63305   0.00000             0.00000  18.89616   0.00000
           0.00000   0.00000  18.63305             0.00000   0.00000  18.89616
Lengths:  18.63305  18.63305  18.63305  Average:  18.89616  18.89616  18.89616
Angles:   90.00000  90.00000  90.00000  Average:  90.00000  90.00000  90.00000
Rectangular boundary conditions

net charge:   0.00000000

component 0 (CO2) lambda:  0 occupancy:  1 (1.000000)
    net charge:   0.00000000 [e]

Amount of molecules per component :
-------------------------------------------------------------------------------
Component 0 (CO2)
    molecules:      1.000000e+02 molecules  (1.000000e+02 +/- 0.000000e+00)
    number density: 1.545782e-02 molec./A^3 (1.482945e-02 +/- 0.000000e+00)
    density:        1.129375e+03 kg/m^3     (1.083465e+03 +/- 0.000000e+00)

Average pressure tensor: 
-------------------------------------------------------------------------------
 1.7866e+02  2.5159e+01 -5.4161e+01 +/- 0.0000e+00 0.0000e+00 0.0000e+00 [bar]
 2.5159e+01  1.2513e+02  3.8830e+01 +/- 0.0000e+00 0.0000e+00 0.0000e+00 [bar]
-5.4161e+01  3.8830e+01  1.2756e+02 +/- 0.0000e+00 0.0000e+00 0.0000e+00 [bar]
Ideal-gas pressure:   5.118572e+02 +/ 0.000000e+00 [bar]
Excess pressure:     -3.680747e+02 +/ 0.000000e+00 [bar]
Pressure:             1.437825e+02 +/ 0.000000e+00 [bar]

Total potential energy/kʙ  -1.617224e+05 (-1.559580e+05 +/- 0.000000e+00) [K]
-------------------------------------------------------------------------------
ExternalField-molecule
    Van der Waals/kʙ        0.000000e+00 ( 0.000000e+00 +/- 0.000000e+00) [K]
Framework-molecule
    Van der Waals/kʙ        0.000000e+00 ( 0.000000e+00 +/- 0.000000e+00) [K]
    Van der Waals (Tail)/kʙ 0.000000e+00 ( 0.000000e+00 +/- 0.000000e+00) [K]
    Coulombic Real/kʙ       0.000000e+00 ( 0.000000e+00 +/- 0.000000e+00) [K]
    Coulombic Fourier/kʙ    0.000000e+00 ( 0.000000e+00 +/- 0.000000e+00) [K]
Molecule-molecule
    Van der Waals/kʙ       -1.111949e+05 (-1.108727e+05 +/- 0.000000e+00) [K]
    Van der Waals (Tail)/kʙ-4.959717e+03 (-4.762434e+03 +/- 0.000000e+00) [K]
    Coulombic Real/kʙ      -3.659581e+04 (-3.243404e+04 +/- 0.000000e+00) [K]
    Coulombic Fourier/kʙ   -8.972006e+03 (-7.888825e+03 +/- 0.000000e+00) [K]
    Molecule Intra/kʙ       0.000000e+00 ( 0.000000e+00 +/- 0.000000e+00) [K]

Current cycle: 1700 out of 5000
===============================================================================

Box:      18.82590   0.00000   0.00000  Average:  18.88514   0.00000   0.00000
           0.00000  18.82590   0.00000             0.00000  18.88514   0.00000
           0.00000   0.00000  18.82590             0.00000   0.00000  18.88514
Lengths:  18.82590  18.82590  18.82590  Average:  18.88514  18.88514  18.88514
Angles:   90.00000  90.00000  90.00000  Average:  90.00000  90.00000  90.00000
Rectangular boundary conditions

net charge:   0.00000000

component 0 (CO2) lambda:  0 occupancy:  1 (1.000000)
    net charge:   0.00000000 [e]

Amount of molecules per component :
-------------------------------------------------------------------------------
Component 0 (CO2)
    molecules:      1.000000e+02 molecules  (1.000000e+02 +/- 0.000000e+00)
    number density: 1.498761e-02 molec./A^3 (1.485555e-02 +/- 0.000000e+00)
    density:        1.095021e+03 kg/m^3     (1.085372e+03 +/- 0.000000e+00)

Average pressure tensor: 
-------------------------------------------------------------------------------
 1.6509e+02  1.1786e+01 -5.4773e+01 +/- 0.0000e+00 0.0000e+00 0.0000e+00 [bar]
 1.1786e+01  1.3776e+02  2.3896e+01 +/- 0.0000e+00 0.0000e+00 0.0000e+00 [bar]
-5.4773e+01  2.3896e+01  1.3832e+02 +/- 0.0000e+00 0.0000e+00 0.0000e+00 [bar]
Ideal-gas pressure:   5.127581e+02 +/ 0.000000e+00 [bar]
Excess pressure:     -3.657029e+02 +/ 0.000000e+00 [bar]
Pressure:             1.470551e+02 +/ 0.000000e+00 [bar]

Total potential energy/kʙ  -1.595306e+05 (-1.563898e+05 +/- 0.000000e+00) [K]
-------------------------------------------------------------------------------
ExternalField-molecule
    Van der Waals/kʙ        0.000000e+00 ( 0.000000e+00 +/- 0.000000e+00) [K]
Framework-molecule
    Van der Waals/kʙ        0.000000e+00 ( 0.000000e+00 +/- 0.000000e+00) [K]
    Van der Waals (Tail)/kʙ 0.000000e+00 ( 0.000000e+00 +/- 0.000000e+00) [K]
    Coulombic Real/kʙ       0.000000e+00 ( 0.000000e+00 +/- 0.000000e+00) [K]
    Coulombic Fourier/kʙ    0.000000e+00 ( 0.000000e+00 +/- 0.000000e+00) [K]
Molecule-molecule
    Van der Waals/kʙ       -1.118298e+05 (-1.110667e+05 +/- 0.000000e+00) [K]
    Van der Waals (Tail)/kʙ-4.808849e+03 (-4.770216e+03 +/- 0.000000e+00) [K]
    Coulombic Real/kʙ      -3.401577e+04 (-3.261746e+04 +/- 0.000000e+00) [K]
    Coulombic Fourier/kʙ   -8.876158e+03 (-7.935405e+03 +/- 0.000000e+00) [K]
    Molecule Intra/kʙ       0.000000e+00 ( 0.000000e+00 +/- 0.000000e+00) [K]

Current cycle: 1800 out of 5000
===============================================================================

Box:      19.01629   0.00000   0.00000  Average:  18.88658   0.00000   0.00000
           0.00000  19.01629   0.00000             0.00000  18.88658   0.00000
           0.00000   0.00000  19.01629             0.00000   0.00000  18.88658
Lengths:  19.01629  19.01629  19.01629  Average:  18.88658  18.88658  18.88658
Angles:   90.00000  90.00000  90.00000  Average:  90.00000  90.00000  90.00000
Rectangular boundary conditions

net charge:   0.00000000

component 0 (CO2) lambda:  0 occupancy:  1 (1.000000)
    net charge:   0.00000000 [e]

Amount of molecules per component :
-------------------------------------------------------------------------------
Component 0 (CO2)
    molecules:      1.000000e+02 molecules  (1.000000e+02 +/- 0.000000e+00)
    number density: 1.454196e-02 molec./A^3 (1.485185e-02 +/- 0.000000e+00)
    density:        1.062461e+03 kg/m^3     (1.085102e+03 +/- 0.000000e+00)

Average pressure tensor: 
-------------------------------------------------------------------------------
 1.4697e+02  7.8603e+00 -5.8207e+01 +/- 0.0000e+00 0.0000e+00 0.0000e+00 [bar]
 7.8603e+00  1.3910e+02  1.3997e+01 +/- 0.0000e+00 0.0000e+00 0.0000e+00 [bar]
-5.8207e+01  1.3997e+01  1.2925e+02 +/- 0.0000e+00 0.0000e+00 0.0000e+00 [bar]
Ideal-gas pressure:   5.126304e+02 +/ 0.000000e+00 [bar]
Excess pressure:     -3.741910e+02 +/ 0.000000e+00 [bar]
Pressure:             1.384394e+02 +/ 0.000000e+00 [bar]

Total potential energy/kʙ  -1.567619e+05 (-1.564915e+05 +/- 0.000000e+00) [K]
-------------------------------------------------------------------------------
ExternalField-molecule
    Van der Waals/kʙ        0.000000e+00 ( 0.000000e+00 +/- 0.000000e+00) [K]
Framework-molecule
    Van der Waals/kʙ        0.000000e+00 ( 0.000000e+00 +/- 0.000000e+00) [K]
    Van der Waals (Tail)/kʙ 0.000000e+00 ( 0.000000e+00 +/- 0.000000e+00) [K]
    Coulombic Real/kʙ       0.000000e+00 ( 0.000000e+00 +/- 0.000000e+00) [K]
    Coulombic Fourier/kʙ    0.000000e+00 ( 0.000000e+00 +/- 0.000000e+00) [K]
Molecule-molecule
    Van der Waals/kʙ       -1.092806e+05 (-1.111239e+05 +/- 0.000000e+00) [K]
    Van der Waals (Tail)/kʙ-4.665859e+03 (-4.768325e+03 +/- 0.000000e+00) [K]
    Coulombic Real/kʙ      -3.489124e+04 (-3.264218e+04 +/- 0.000000e+00) [K]
    Coulombic Fourier/kʙ   -7.924201e+03 (-7.957093e+03 +/- 0.000000e+00) [K]
    Molecule Intra/kʙ       0.000000e+00 ( 0.000000e+00 +/- 0.000000e+00) [K]

Current cycle: 1900 out of 5000
===============================================================================

Box:      18.93328   0.00000   0.00000  Average:  18.88295   0.00000   0.00000
           0.00000  18.93328   0.00000             0.00000  18.88295   0.00000
           0.00000   0.00000  18.93328             0.00000   0.00000  18.88295
Lengths:  18.93328  18.93328  18.93328  Average:  18.88295  18.88295  18.88295
Angles:   90.00000  90.00000  90.00000  Average:  90.00000  90.00000  90.00000
Rectangular boundary conditions

net charge:   0.00000000

component 0 (CO2) lambda:  0 occupancy:  1 (1.000000)
    net charge:   0.00000000 [e]

Amount of molecules per component :
-------------------------------------------------------------------------------
Component 0 (CO2)
    molecules:      1.000000e+02 molecules  (1.000000e+02 +/- 0.000000e+00)
    number density: 1.473405e-02 molec./A^3 (1.486015e-02 +/- 0.000000e+00)
    density:        1.076495e+03 kg/m^3     (1.085708e+03 +/- 0.000000e+00)

Average pressure tensor: 
-------------------------------------------------------------------------------
 1.3554e+02  3.5949e+01 -6.0586e+01 +/- 0.0000e+00 0.0000e+00 0.0000e+00 [bar]
 3.5949e+01  1.4861e+02 -7.6379e+00 +/- 0.0000e+00 0.0000e+00 0.0000e+00 [bar]
-6.0586e+01 -7.6379e+00  1.4680e+02 +/- 0.0000e+00 0.0000e+00 0.0000e+00 [bar]
Ideal-gas pressure:   5.129167e+02 +/ 0.000000e+00 [bar]
Excess pressure:     -3.692675e+02 +/ 0.000000e+00 [bar]
Pressure:             1.436493e+02 +/ 0.000000e+00 [bar]

Total potential energy/kʙ  -1.529304e+05 (-1.564718e+05 +/- 0.000000e+00) [K]
-------------------------------------------------------------------------------
ExternalField-molecule
    Van der Waals/kʙ        0.000000e+00 ( 0.000000e+00 +/- 0.000000e+00) [K]
Framework-molecule
    Van der Waals/kʙ        0.000000e+00 ( 0.000000e+00 +/- 0.000000e+00) [K]
    Van der Waals (Tail)/kʙ 0.000000e+00 ( 0.000000e+00 +/- 0.000000e+00) [K]
    Coulombic Real/kʙ       0.000000e+00 ( 0.000000e+00 +/- 0.000000e+00) [K]
    Coulombic Fourier/kʙ    0.000000e+00 ( 0.000000e+00 +/- 0.000000e+00) [K]
Molecule-molecule
    Van der Waals/kʙ       -1.101570e+05 (-1.111232e+05 +/- 0.000000e+00) [K]
    Van der Waals (Tail)/kʙ-4.727492e+03 (-4.770718e+03 +/- 0.000000e+00) [K]
    Coulombic Real/kʙ      -3.104252e+04 (-3.261643e+04 +/- 0.000000e+00) [K]
    Coulombic Fourier/kʙ   -7.003398e+03 (-7.961460e+03 +/- 0.000000e+00) [K]
    Molecule Intra/kʙ       0.000000e+00 ( 0.000000e+00 +/- 0.000000e+00) [K]

Current cycle: 2000 out of 5000
===============================================================================

Box:      19.04815   0.00000   0.00000  Average:  18.88430   0.00000   0.00000
           0.00000  19.04815   0.00000             0.00000  18.88430   0.00000
           0.00000   0.00000  19.04815             0.00000   0.00000  18.88430
Lengths:  19.04815  19.04815  19.04815  Average:  18.88430  18.88430  18.88430
Angles:   90.00000  90.00000  90.00000  Average:  90.00000  90.00000  90.00000
Rectangular boundary conditions

net charge:   0.00000000

component 0 (CO2) lambda:  0 occupancy:  1 (1.000000)
    net charge:   0.00000000 [e]

Amount of molecules per component :
-------------------------------------------------------------------------------
Component 0 (CO2)
    molecules:      1.000000e+02 molecules  (1.000000e+02 +/- 0.000000e+00)
    number density: 1.446909e-02 molec./A^3 (1.485666e-02 +/- 0.000000e+00)
    density:        1.057137e+03 kg/m^3     (1.085453e+03 +/- 0.000000e+00)

Average pressure tensor: 
-------------------------------------------------------------------------------
 1.3652e+02  3.6150e+01 -6.7383e+01 +/- 0.0000e+00 0.0000e+00 0.0000e+00 [bar]
 3.6150e+01  1.4602e+02 -1.2829e+01 +/- 0.0000e+00 0.0000e+00 0.0000e+00 [bar]
-6.7383e+01 -1.2829e+01  1.4023e+02 +/- 0.0000e+00 0.0000e+00 0.0000e+00 [bar]
Ideal-gas pressure:   5.127963e+02 +/ 0.000000e+00 [bar]
Excess pressure:     -3.718698e+02 +/ 0.000000e+00 [bar]
Pressure:             1.409265e+02 +/ 0.000000e+00 [bar]

Total potential energy/kʙ  -1.512885e+05 (-1.563620e+05 +/- 0.000000e+00) [K]
-------------------------------------------------------------------------------
ExternalField-molecule
    Van der Waals/kʙ        0.000000e+00 ( 0.000000e+00 +/- 0.000000e+00) [K]
Framework-molecule
    Van der Waals/kʙ        0.000000e+00 ( 0.000000e+00 +/- 0.000000e+00) [K]
    Van der Waals (Tail)/kʙ 0.000000e+00 ( 0.000000e+00 +/- 0.000000e+00) [K]
    Coulombic Real/kʙ       0.000000e+00 ( 0.000000e+00 +/- 0.000000e+00) [K]
    Coulombic Fourier/kʙ    0.000000e+00 ( 0.000000e+00 +/- 0.000000e+00) [K]
Molecule-molecule
    Van der Waals/kʙ       -1.094566e+05 (-1.110848e+05 +/- 0.000000e+00) [K]
    Van der Waals (Tail)/kʙ-4.642479e+03 (-4.768657e+03 +/- 0.000000e+00) [K]
    Coulombic Real/kʙ      -3.009983e+04 (-3.257840e+04 +/- 0.000000e+00) [K]
    Coulombic Fourier/kʙ   -7.089582e+03 (-7.930214e+03 +/- 0.000000e+00) [K]
    Molecule Intra/kʙ       0.000000e+00 ( 0.000000e+00 +/- 0.000000e+00) [K]

Current cycle: 2100 out of 5000
===============================================================================

Box:      19.24049   0.00000   0.00000  Average:  18.89535   0.00000   0.00000
           0.00000  19.24049   0.00000             0.00000  18.89535   0.00000
           0.00000   0.00000  19.24049             0.00000   0.00000  18.89535
Lengths:  19.24049  19.24049  19.24049  Average:  18.89535  18.89535  18.89535
Angles:   90.00000  90.00000  90.00000  Average:  90.00000  90.00000  90.00000
Rectangular boundary conditions

net charge:   0.00000000

component 0 (CO2) lambda:  0 occupancy:  1 (1.000000)
    net charge:   0.00000000 [e]

Amount of molecules per component :
-------------------------------------------------------------------------------
Component 0 (CO2)
    molecules:      1.000000e+02 molecules  (1.000000e+02 +/- 0.000000e+00)
    number density: 1.403950e-02 molec./A^3 (1.483111e-02 +/- 0.000000e+00)
    density:        1.025750e+03 kg/m^3     (1.083587e+03 +/- 0.000000e+00)

Average pressure tensor: 
-------------------------------------------------------------------------------
 1.3048e+02  3.2132e+01 -6.9894e+01 +/- 0.0000e+00 0.0000e+00 0.0000e+00 [bar]
 3.2132e+01  1.4874e+02 -2.2910e+01 +/- 0.0000e+00 0.0000e+00 0.0000e+00 [bar]
-6.9894e+01 -2.2910e+01  1.2304e+02 +/- 0.0000e+00 0.0000e+00 0.0000e+00 [bar]
Ideal-gas pressure:   5.119145e+02 +/ 0.000000e+00 [bar]
Excess pressure:     -3.778278e+02 +/ 0.000000e+00 [bar]
Pressure:             1.340867e+02 +/ 0.000000e+00 [bar]

Total potential energy/kʙ  -1.520206e+05 (-1.560227e+05 +/- 0.000000e+00) [K]
-------------------------------------------------------------------------------
ExternalField-molecule
    Van der Waals/kʙ        0.000000e+00 ( 0.000000e+00 +/- 0.000000e+00) [K]
Framework-molecule
    Van der Waals/kʙ        0.000000e+00 ( 0.000000e+00 +/- 0.000000e+00) [K]
    Van der Waals (Tail)/kʙ 0.000000e+00 ( 0.000000e+00 +/- 0.000000e+00) [K]
[...]
    Coulombic Fourier/kʙ    0.000000e+00 ( 0.000000e+00 +/- 0.000000e+00) [K]
Molecule-molecule
    Van der Waals/kʙ       -1.058928e+05 (-1.101073e+05 +/- 1.245273e+03) [K]
    Van der Waals (Tail)/kʙ-4.519632e+03 (-4.721419e+03 +/- 6.635835e+01) [K]
    Coulombic Real/kʙ      -3.524711e+04 (-3.238186e+04 +/- 8.593484e+02) [K]
    Coulombic Fourier/kʙ   -8.549769e+03 (-7.846763e+03 +/- 2.057286e+02) [K]
    Molecule Intra/kʙ       0.000000e+00 ( 0.000000e+00 +/- 0.000000e+00) [K]

Current cycle: 4700 out of 5000
===============================================================================

Box:      18.94686   0.00000   0.00000  Average:  18.95057   0.00000   0.00000
           0.00000  18.94686   0.00000             0.00000  18.95057   0.00000
           0.00000   0.00000  18.94686             0.00000   0.00000  18.95057
Lengths:  18.94686  18.94686  18.94686  Average:  18.95057  18.95057  18.95057
Angles:   90.00000  90.00000  90.00000  Average:  90.00000  90.00000  90.00000
Rectangular boundary conditions

net charge:   0.00000000

component 0 (CO2) lambda:  0 occupancy:  1 (1.000000)
    net charge:   0.00000000 [e]

Amount of molecules per component :
-------------------------------------------------------------------------------
Component 0 (CO2)
    molecules:      1.000000e+02 molecules  (1.000000e+02 +/- 0.000000e+00)
    number density: 1.470241e-02 molec./A^3 (1.470377e-02 +/- 2.081146e-04)
    density:        1.074183e+03 kg/m^3     (1.074282e+03 +/- 1.520521e+01)

Average pressure tensor: 
-------------------------------------------------------------------------------
 1.0703e+02  4.4123e+01 -2.8865e+01 +/- 4.9205e+01 4.6463e+01 1.6009e+02 [bar]
 4.4123e+01  1.5855e+02  1.2586e+01 +/- 4.6463e+01 1.0826e+02 1.2309e+02 [bar]
-2.8865e+01  1.2586e+01  1.0140e+02 +/- 1.6009e+02 1.2309e+02 1.2275e+02 [bar]
Ideal-gas pressure:   5.075189e+02 +/ 7.183337e+00 [bar]
Excess pressure:     -3.851964e+02 +/ 7.773131e+01 [bar]
Pressure:             1.223225e+02 +/ 8.253182e+01 [bar]

Total potential energy/kʙ  -1.549964e+05 (-1.549390e+05 +/- 2.191281e+03) [K]
-------------------------------------------------------------------------------
ExternalField-molecule
    Van der Waals/kʙ        0.000000e+00 ( 0.000000e+00 +/- 0.000000e+00) [K]
Framework-molecule
    Van der Waals/kʙ        0.000000e+00 ( 0.000000e+00 +/- 0.000000e+00) [K]
    Van der Waals (Tail)/kʙ 0.000000e+00 ( 0.000000e+00 +/- 0.000000e+00) [K]
    Coulombic Real/kʙ       0.000000e+00 ( 0.000000e+00 +/- 0.000000e+00) [K]
    Coulombic Fourier/kʙ    0.000000e+00 ( 0.000000e+00 +/- 0.000000e+00) [K]
Molecule-molecule
    Van der Waals/kʙ       -1.092304e+05 (-1.100346e+05 +/- 1.303604e+03) [K]
    Van der Waals (Tail)/kʙ-4.717341e+03 (-4.718760e+03 +/- 6.935103e+01) [K]
    Coulombic Real/kʙ      -3.313975e+04 (-3.233571e+04 +/- 9.273484e+02) [K]
    Coulombic Fourier/kʙ   -7.908853e+03 (-7.849899e+03 +/- 1.903556e+02) [K]
    Molecule Intra/kʙ       0.000000e+00 ( 0.000000e+00 +/- 0.000000e+00) [K]

Current cycle: 4800 out of 5000
===============================================================================

Box:      19.12990   0.00000   0.00000  Average:  18.94973   0.00000   0.00000
           0.00000  19.12990   0.00000             0.00000  18.94973   0.00000
           0.00000   0.00000  19.12990             0.00000   0.00000  18.94973
Lengths:  19.12990  19.12990  19.12990  Average:  18.94973  18.94973  18.94973
Angles:   90.00000  90.00000  90.00000  Average:  90.00000  90.00000  90.00000
Rectangular boundary conditions

net charge:   0.00000000

component 0 (CO2) lambda:  0 occupancy:  1 (1.000000)
    net charge:   0.00000000 [e]

Amount of molecules per component :
-------------------------------------------------------------------------------
Component 0 (CO2)
    molecules:      1.000000e+02 molecules  (1.000000e+02 +/- 0.000000e+00)
    number density: 1.428439e-02 molec./A^3 (1.470558e-02 +/- 1.971079e-04)
    density:        1.043642e+03 kg/m^3     (1.074415e+03 +/- 1.440104e+01)

Average pressure tensor: 
-------------------------------------------------------------------------------
 1.0496e+02  4.5072e+01 -2.7416e+01 +/- 5.1474e+01 4.6138e+01 1.4896e+02 [bar]
 4.5072e+01  1.6223e+02  1.5527e+01 +/- 4.6138e+01 9.5268e+01 1.2494e+02 [bar]
-2.7416e+01  1.5527e+01  9.9191e+01 +/- 1.4896e+02 1.2494e+02 1.2242e+02 [bar]
Ideal-gas pressure:   5.075815e+02 +/ 6.803428e+00 [bar]
Excess pressure:     -3.854546e+02 +/ 7.419436e+01 [bar]
Pressure:             1.221269e+02 +/ 7.847160e+01 [bar]

Total potential energy/kʙ  -1.524147e+05 (-1.549776e+05 +/- 2.057267e+03) [K]
-------------------------------------------------------------------------------
ExternalField-molecule
    Van der Waals/kʙ        0.000000e+00 ( 0.000000e+00 +/- 0.000000e+00) [K]
Framework-molecule
    Van der Waals/kʙ        0.000000e+00 ( 0.000000e+00 +/- 0.000000e+00) [K]
    Van der Waals (Tail)/kʙ 0.000000e+00 ( 0.000000e+00 +/- 0.000000e+00) [K]
    Coulombic Real/kʙ       0.000000e+00 ( 0.000000e+00 +/- 0.000000e+00) [K]
    Coulombic Fourier/kʙ    0.000000e+00 ( 0.000000e+00 +/- 0.000000e+00) [K]
Molecule-molecule
    Van der Waals/kʙ       -1.077071e+05 (-1.100660e+05 +/- 1.262824e+03) [K]
    Van der Waals (Tail)/kʙ-4.583215e+03 (-4.719438e+03 +/- 6.572216e+01) [K]
    Coulombic Real/kʙ      -3.269289e+04 (-3.234927e+04 +/- 8.480696e+02) [K]
    Coulombic Fourier/kʙ   -7.431472e+03 (-7.842948e+03 +/- 1.969818e+02) [K]
    Molecule Intra/kʙ       0.000000e+00 ( 0.000000e+00 +/- 0.000000e+00) [K]

Current cycle: 4900 out of 5000
===============================================================================

Box:      18.58992   0.00000   0.00000  Average:  18.94517   0.00000   0.00000
           0.00000  18.58992   0.00000             0.00000  18.94517   0.00000
           0.00000   0.00000  18.58992             0.00000   0.00000  18.94517
Lengths:  18.58992  18.58992  18.58992  Average:  18.94517  18.94517  18.94517
Angles:   90.00000  90.00000  90.00000  Average:  90.00000  90.00000  90.00000
Rectangular boundary conditions

net charge:   0.00000000

component 0 (CO2) lambda:  0 occupancy:  1 (1.000000)
    net charge:   0.00000000 [e]

Amount of molecules per component :
-------------------------------------------------------------------------------
Component 0 (CO2)
    molecules:      1.000000e+02 molecules  (1.000000e+02 +/- 0.000000e+00)
    number density: 1.556566e-02 molec./A^3 (1.471639e-02 +/- 1.784528e-04)
    density:        1.137254e+03 kg/m^3     (1.075205e+03 +/- 1.303806e+01)

Average pressure tensor: 
-------------------------------------------------------------------------------
 9.9098e+01  4.9218e+01 -2.9605e+01 +/- 6.1966e+01 5.3212e+01 1.3059e+02 [bar]
 4.9218e+01  1.6465e+02  1.5588e+01 +/- 5.3212e+01 8.8801e+01 1.2361e+02 [bar]
-2.9605e+01  1.5588e+01  9.3201e+01 +/- 1.3059e+02 1.2361e+02 1.2935e+02 [bar]
Ideal-gas pressure:   5.079548e+02 +/ 6.159522e+00 [bar]
Excess pressure:     -3.889730e+02 +/ 7.828204e+01 [bar]
Pressure:             1.189818e+02 +/ 8.156377e+01 [bar]

Total potential energy/kʙ  -1.670892e+05 (-1.551355e+05 +/- 1.861702e+03) [K]
-------------------------------------------------------------------------------
ExternalField-molecule
    Van der Waals/kʙ        0.000000e+00 ( 0.000000e+00 +/- 0.000000e+00) [K]
Framework-molecule
    Van der Waals/kʙ        0.000000e+00 ( 0.000000e+00 +/- 0.000000e+00) [K]
    Van der Waals (Tail)/kʙ 0.000000e+00 ( 0.000000e+00 +/- 0.000000e+00) [K]
    Coulombic Real/kʙ       0.000000e+00 ( 0.000000e+00 +/- 0.000000e+00) [K]
    Coulombic Fourier/kʙ    0.000000e+00 ( 0.000000e+00 +/- 0.000000e+00) [K]
Molecule-molecule
    Van der Waals/kʙ       -1.147414e+05 (-1.101772e+05 +/- 1.235485e+03) [K]
    Van der Waals (Tail)/kʙ-4.994319e+03 (-4.723036e+03 +/- 5.979344e+01) [K]
    Coulombic Real/kʙ      -3.856434e+04 (-3.238389e+04 +/- 7.580823e+02) [K]
    Coulombic Fourier/kʙ   -8.789137e+03 (-7.851343e+03 +/- 1.797893e+02) [K]
    Molecule Intra/kʙ       0.000000e+00 ( 0.000000e+00 +/- 0.000000e+00) [K]


Energy statistics             |  Energy [K]   | Recomputed [K]|  Drift [K]    |
===============================================================================
Total potential energy/kʙ     | -1.575832e+05 | -1.575832e+05 | -1.192320e-10 |
    external field VDW/kʙ     |  0.000000e+00 |  0.000000e+00 |  0.000000e+00 |
    external field Real/kʙ    |  0.000000e+00 |  0.000000e+00 |  0.000000e+00 |
    framework-molecule VDW/kʙ |  0.000000e+00 |  0.000000e+00 |  0.000000e+00 |
    framework-molecule Real/kʙ|  0.000000e+00 |  0.000000e+00 |  0.000000e+00 |
    molecule-molecule VDW/kʙ  | -1.112011e+05 | -1.112011e+05 | -5.425602e-10 |
    molecule-molecule Real/kʙ | -3.384096e+04 | -3.384096e+04 |  4.156711e-10 |
    Van der Waals (Tail)/kʙ   | -4.736778e+03 | -4.736778e+03 |  0.000000e+00 |
    Ewald Fourier/kʙ          |  6.726476e+03 |  6.726476e+03 |  7.657100e-12 |
    Ewald self/kʙ             | -2.222923e+06 | -2.222923e+06 |  0.000000e+00 |
    Ewald exclusion/kʙ        |  2.208392e+06 |  2.208392e+06 |  0.000000e+00 |
    intra VDW/kʙ              |  0.000000e+00 |  0.000000e+00 |  0.000000e+00 |
    intra Coulombic/kʙ        |  0.000000e+00 |  0.000000e+00 |  0.000000e+00 |
    polarization/kʙ           |  0.000000e+00 |  0.000000e+00 |  0.000000e+00 |
    dU/dlambda VDW/kʙ         |  0.000000e+00 |  0.000000e+00 |  0.000000e+00 |
    dU/dlambda Real/kʙ        |  0.000000e+00 |  0.000000e+00 |  0.000000e+00 |
    dU/dlambda Ewald/kʙ       |  0.000000e+00 |  0.000000e+00 |  0.000000e+00 |
-------------------------------------------------------------------------------


Monte-Carlo moves statistics
===============================================================================

    Volume change        all:                3252
    Volume change        total:              3252
    Volume change        constructed:        3252
    Volume change        accepted:           2103
    Volume change        fraction:       0.646679
    Volume change        max-change:     0.025000

Component 0 [CO2]
    Reinsertion (CBMC)   all:              165398
    Reinsertion (CBMC)   total:            165398
    Reinsertion (CBMC)   constructed:      145862
    Reinsertion (CBMC)   accepted:           2135
    Reinsertion (CBMC)   fraction:       0.012908
    Reinsertion (CBMC)   max-change:     0.000000

    Translation          all:              165821
    Translation          total:             55364      55150      55307
    Translation          constructed:       53874      54874      55307
    Translation          accepted:          13935      16681      28502
    Translation          fraction:       0.251698   0.302466   0.515342
    Translation          max-change:     1.500000   1.224490   0.625000

    Rotation             all:              165529
    Rotation             total:             55293      55274      54962
    Rotation             constructed:       55293      55269      54962
    Rotation             accepted:          26054      23023      26030
    Rotation             fraction:       0.471199   0.416525   0.473600
    Rotation             max-change:     0.750000   0.888889   0.738462



Production run counting of the MC moves summed over systems and components
===============================================================================

Volume change                          3252 (0.6504 [%])
Reinsertion (CBMC)                   165398 (33.0796 [%])
Translation                          165821 (33.1642 [%])
Rotation                             165529 (33.1058 [%])

Production count MC-steps:           500000 [-]
               All summed:           500000 [-]
               difference:                0 [-]


Production run CPU timings of the MC moves
===============================================================================

Component 0 CO2

Rotation                             22.530698 [s]
    Ewald                            12.497894 [s]
    ExternalField-Molecule            0.006036 [s]
    Framework-Molecule                0.005634 [s]
    Molecule-Molecule                 9.060713 [s]
    Overhead                          0.960421 [s]

Reinsertion (CBMC)                   70.069655 [s]
    Ewald                            11.010228 [s]
    NonEwald                         58.900517 [s]
    Overhead                          0.158910 [s]

Translation                          22.256826 [s]
    Ewald                            12.376312 [s]
    ExternalField-Molecule            0.005722 [s]
    Framework-Molecule                0.008958 [s]
    Molecule-Molecule                 9.083907 [s]
    Overhead                          0.781927 [s]



Volume change                          9.214536 [s]
    Ewald                              4.543916 [s]
    NonEwald                           4.443064 [s]
    Tail                               0.145070 [s]

Property sampling                     0.228792 [s]
Energy/pressure sampling:             3.402851 [s]


Production run CPU timings of the MC moves summed over systems and components
===============================================================================


Translation                          22.256826 [s]
    Ewald                            12.376312 [s]
    ExternalField-Molecule            0.005722 [s]
    Framework-Molecule                0.008958 [s]
    Molecule-Molecule                 9.083907 [s]
    Overhead                          0.781927 [s]

Rotation                             22.530698 [s]
    Ewald                            12.497894 [s]
    ExternalField-Molecule            0.006036 [s]
    Framework-Molecule                0.005634 [s]
    Molecule-Molecule                 9.060713 [s]
    Overhead                          0.960421 [s]

Volume change                         9.214536 [s]
    Ewald                             4.543916 [s]
    NonEwald                          4.443064 [s]
    Tail                              0.145070 [s]
    Overhead                          0.082486 [s]

Reinsertion (CBMC)                   70.069655 [s]
    Ewald                            11.010228 [s]
    NonEwald                         58.900517 [s]
    Overhead                          0.158910 [s]

Property sampling:                    0.228792 [s]
Energy/pressure sampling:             3.402851 [s]

Production simulation time:         128.086404 [s]
                All summed:         127.703358 [s]
                  Overhead:           0.383046 [s]


Initalization simulation time:       23.553569 [s]
Equilibration simulation time:        0.000000 [s]
Production simulation time:         128.086404 [s]
Total simulation time:              151.639973 [s]


Energy averages and statistics:
===============================================================================

Framework-molecule energy:
-------------------------------------------------------------------------------



Framework-molecule energy contributions per energy type:
-------------------------------------------------------------------------------



Inter-molecular energy:
-------------------------------------------------------------------------------

    Inter-molecular energy/kʙ 0-0 [CO2-CO2]:
    ---------------------------------------------------------------------------
        Block[  0] -1.551396e+05
        Block[  1] -1.576351e+05
        Block[  2] -1.546296e+05
        Block[  3] -1.536695e+05
        Block[  4] -1.548648e+05
        -----------------------------------------------------------------------
        Average  -1.551877e+05 +/-  1.832265e+03 [K]



Inter-molecular energy contributions per energy type:
-------------------------------------------------------------------------------

    Van der Waals energy/kʙ 0-0 [CO2-CO2]:
    ---------------------------------------------------------------------------
        Block[  0] -1.106608e+05
        Block[  1] -1.115250e+05
        Block[  2] -1.092592e+05
        Block[  3] -1.091510e+05
        Block[  4] -1.104644e+05
        -----------------------------------------------------------------------
        Average  -1.102121e+05 +/-  1.244966e+03 [K]

    VDW Tail-Correction energy/kʙ 0-0 [CO2-CO2]:
    ---------------------------------------------------------------------------
        Block[  0] -4.738669e+03
        Block[  1] -4.799908e+03
        Block[  2] -4.682931e+03
        Block[  3] -4.696967e+03
        Block[  4] -4.703516e+03
        -----------------------------------------------------------------------
        Average  -4.724398e+03 +/-  5.827433e+01 [K]

    Coulomb Real energy/kʙ 0-0 [CO2-CO2]:
    ---------------------------------------------------------------------------
        Block[  0] -3.196499e+04
        Block[  1] -3.321660e+04
        Block[  2] -3.281808e+04
        Block[  3] -3.205584e+04
        Block[  4] -3.195852e+04
        -----------------------------------------------------------------------
        Average  -3.240280e+04 +/-  7.196685e+02 [K]

    Coulomb Fourier energy/kʙ 0-0 [CO2-CO2]:
    ---------------------------------------------------------------------------
        Block[  0] -7.775204e+03
        Block[  1] -8.093630e+03
        Block[  2] -7.869413e+03
        Block[  3] -7.765643e+03
        Block[  4] -7.738403e+03
        -----------------------------------------------------------------------
        Average  -7.848459e+03 +/-  1.808505e+02 [K]


Total energy/kʙ
-------------------------------------------------------------------------------
    Block[  0] -1.551396e+05
    Block[  1] -1.576351e+05
    Block[  2] -1.546296e+05
    Block[  3] -1.536695e+05
    Block[  4] -1.548648e+05
    ---------------------------------------------------------------------------
    Average  -1.551877e+05 +/-  1.832265e+03 [K]

Pressure averages and statistics:
===============================================================================

Average pressure tensor: 
-------------------------------------------------------------------------------
 9.3786e+01  5.4169e+01 -2.8429e+01 +/- 7.0709e+01 6.1674e+01 1.2469e+02 [bar]
 5.4169e+01  1.6789e+02  1.3431e+01 +/- 6.1674e+01 8.3702e+01 1.2097e+02 [bar]
-2.8429e+01  1.3431e+01  9.4813e+01 +/- 1.2469e+02 1.2097e+02 1.2250e+02 [bar]

    Block[  0]  5.099182e+07
    Block[  1]  5.156877e+07
    Block[  2]  5.036734e+07
    Block[  3]  5.053321e+07
    Block[  4]  5.061809e+07
    ---------------------------------------------------------------------------
    Ideal gas pressure   5.081585e+07 +/-  3.581628e-02 [Pa]
                         5.081585e+02 +/-  5.947437e+00 [bar]


    Block[  0] -4.225280e+07
    Block[  1] -3.217910e+07
    Block[  2] -4.069250e+07
    Block[  3] -3.313360e+07
    Block[  4] -4.640631e+07
    ---------------------------------------------------------------------------
    Excess pressure  -3.893286e+07 +/-  7.582484e+06 [Pa]
                     -3.893286e+02 +/-  7.582484e+01 [bar]


    Block[  0]  8.739019e+06
    Block[  1]  1.938968e+07
    Block[  2]  9.674837e+06
    Block[  3]  1.739961e+07
    Block[  4]  4.211775e+06
    ---------------------------------------------------------------------------
    Pressure average   1.188298e+07 +/-  7.861313e+06 [Pa]
                       1.188298e+02 +/-  7.861313e+01 [bar]


Enthalpy of adsorption
===============================================================================

No fluctuating components present.


Densities
===============================================================================

Component 0 (CO2)
    Block[  0] 100
    Block[  1] 100
    Block[  2] 100
    Block[  3] 100
    Block[  4] 100
    -----------------------------------------------------------------------
    Density average   1.000000e+02 +/-  0.000000e+00 [molecules]
    Density average   1.472229e-02 +/-  1.723083e-04 [molec/A^3]
    Density average   1.075636e+03 +/-  1.258914e+01 [kg.m⁻³]

