Compiler and run-time data
===============================================================================
RASPA 3.0.4

Random seed: 1590479920

Compiled as a 64-bits application
Compiler: gcc Clang 18.1.8
Compile Date = Mar 15 2025, Compile Time = 19:38:51

2025-06-03 14:56:52.545034
Simulation started on Tue, Jun 03
The start time was 14:56:00

Hostname:    1NNMVV3
OS type:     Linux on x86_64
OS release:  5.15.167.4-microsoft-standard-WSL2
OS version:  #1 SMP Tue Nov 5 00:21:55 UTC 2024


Mutual consistent basic set of units:
===============================================================================

Unit of temperature: 1 [K]
Unit of length:      1e-10 [m]
Unit of time:        1e-12 [s]
Unit of mass:        1.6605402e-27 [kg]
Unit of charge:      1.60217733e-19 [C/particle]


Boltzmann constant (internal units):          0.8314464919307584 [-]
represents conversion from energy (internal units) to temperature (in Kelvin)

Derived units and their conversion factors:
===============================================================================

Unit of energy:                           1.6605402000000002e-23 [J]
Unit of energy:                           10.000008872307538 [J.mol⁻¹]
Unit of velocity:                         100 [m.s⁻¹]
Unit of force:                            1.6605402000000002e-13 [N]
Unit of diffusion:                        1.0000000000000002e-08 [m².s⁻¹]
Unit of acceleration:                     1.0000000000000002e-08 [m².s⁻¹]
Unit of torque:                           1.6605402000000002e-23 [N.m]
Unit of pressure:                         16605402 [Pa]
Unit of volume:                           1e-30 [m³]
Unit of density:                          1660.5402 [kg.m⁻³]
Unit of dynamic viscosity:                1.6605401999999997e-05 [N.s.m⁻²]
Unit of enthalpy:                         1.6605402000000002e-23 [J]
Unit of polarizability:                   1.5458657349975198e-35 [-]
Unit of Coulomb potential:                167101.08000665612 [K]
Unit of dielectric constant:              1.5458657349975193e-05 [s².C².kg⁻¹.m⁻³]
Unit of dipole moment:                    1.60217733e-29 [C.m]
Unit of Debye:                            4.803206799099162 [C.m]
Unit of electric potential:               0.00010364272224473431 [V]
Unit of electric field:                   1036427.222447343 [V.m⁻¹]
Unit of isothermal compressibility:       6.02213665167516e-08 [Pa⁻¹]
Unit of heat capacity:                    10.000008872307538 [J.mol⁻¹.K⁻¹]
Unit of volumetric expansion coefficient: 1 [K⁻¹]


Internal conversion factors:
===============================================================================

Energy (internal units) to Kelvin:      1.202724284692786 [-]
Kelvin to energy (internal units):      0.8314457542157567 [-]


System definitions
===============================================================================

Temperature:          250 [K]
Beta:                 0.0048108928702210625 [-]
Pressure:             2e+07 [Pa]
Helium void fraction: 1 [-]

Box:      30.00000   0.00000   0.00000
           0.00000  30.00000   0.00000
           0.00000   0.00000  30.00000
Lengths:  30.00000  30.00000  30.00000
Angles:   90.00000  90.00000  90.00000
Rectangular boundary conditions



Property measurement settings
===============================================================================




Pseudo-atoms
===============================================================================

  0 - C_co2    framework-atom: false
  1 - O_co2    framework-atom: false

  0 - C_co2    mass: 12.00000, charge:  0.70000
  1 - O_co2    mass: 15.99940, charge: -0.35000

  0 - C_co2    polarizability:  0.00000
  1 - O_co2    polarizability:  0.00000

  0 - J. J. Potoff et al., AIChE J. 2001, 47, 1676–1682.
  1 - J. J. Potoff et al., AIChE J. 2001, 47, 1676–1682.

Force field status
===============================================================================

Cutoff Framework-Molecule VDW:  10.00000 [Å]
Cutoff Molecule-Molecule VDW:   10.00000 [Å]
Cutoff Coulomb:                 10.00000 [Å]

Overlap-criteria VDW:           1.000000e+05 [K]

C_co2    - C_co2    Lennard-Jones p₀/kʙ:  27.00000 [K], p₁:  2.80000 [Å]
                                  shift:   0.00000 [K], tailcorrections: true
C_co2    - O_co2    Lennard-Jones p₀/kʙ:  46.18441 [K], p₁:  2.92500 [Å]
                                  shift:   0.00000 [K], tailcorrections: true
O_co2    - O_co2    Lennard-Jones p₀/kʙ:  79.00000 [K], p₁:  3.05000 [Å]
                                  shift:   0.00000 [K], tailcorrections: true

Ewald precision: 1e-06
Ewald alpha: 0.32079885109097883
Ewald k-vectors: 10 10 10


Component definitions
===============================================================================

Component 0 [CO2]

    Type: Adsorbate

    Critical temperature:  304.1282 [K]
    Critical pressure:     7377300 [Pa]
    Acentric factor:       0.22394 [-]

    Mol-fraction:                 1 [-]
    Swappable:                   false

    Mass:                         43.9988 [-]
    Bulk fluid density:           0 [-]
    Compressibility:              0 [-]
    Excess molecules:             0 [-]

    Number Of Atoms:    3
    CBMC starting bead: 0
      0: O_co2  position  0.00000 -0.00000  1.16000, charge -0.35000
      1: C_co2  position  0.00000 -0.00000  0.00000, charge  0.70000
      2: O_co2  position  0.00000 -0.00000 -1.16000, charge -0.35000
    Diagonalized inertia-vector:      43.05758528 43.05758528 0.00000000
    Translational degrees of freedom: 3
    Rotational degrees of freedom:    2
    Shape of the molecule is: 'Linear'
    Net-charge:        0.00000000 [e]

    Move probabilities:
    Translation:                   0.331126 [-]
    Random translation:            0.000000 [-]
    Rotation:                      0.331126 [-]
    Random rotation:               0.000000 [-]
    Volume change:                 0.006623 [-]
    Reinsertion (CBMC):            0.331126 [-]
    Identity change (CBMC):        0.000000 [-]
    Swap:                          0.000000 [-]
    Swap (CBMC):                   0.000000 [-]
    Swap (CFCMC):                  0.000000 [-]
    Swap (CB/CFCMC):               0.000000 [-]
    Gibbs volume:                  0.000000 [-]
    Gibbs swap (CBMC):             0.000000 [-]
    Gibbs swap (CFCMC):            0.000000 [-]
    Widom:                         0.000000 [-]
    Widom (CFCMC):                 0.000000 [-]
    Widom (CB/CFCMC):              0.000000 [-]
    Parallel tempering:            0.000000 [-]
    Hybrid MC:                     0.000000 [-]

    number of blocking-pockets: 0

    number of bonds: 0





Number of pseudo-atoms
===============================================================================

Component   0 (CO2)
-------------------------------------------------------------------------------
    index   0 (C_co2): 250 atoms
    index   1 (O_co2): 500 atoms

Total number of pseudo-atoms:
-------------------------------------------------------------------------------
    index   0 (C_co2): 250 atoms
    index   1 (O_co2): 500 atoms




Energy status Recomputed from scratch
===============================================================================

Total potential energy/kʙ       -5.911953e+04 [K]
    external field VDW/kʙ        0.000000e+00 [K]
    external field Real/kʙ       0.000000e+00 [K]
    framework-molecule VDW/kʙ    0.000000e+00 [K]
    framework-molecule Real/kʙ   0.000000e+00 [K]
    molecule-molecule VDW/kʙ    -2.933397e+04 [K]
    molecule-molecule Real/kʙ   -1.727783e+04 [K]
    Van der Waals (Tail)/kʙ     -7.427197e+03 [K]
    Ewald Fourier/kʙ             3.124661e+04 [K]
    Ewald self/kʙ               -5.557308e+06 [K]
    Ewald exclusion/kʙ           5.520981e+06 [K]
    intra VDW/kʙ                 0.000000e+00 [K]
    intra Coulombic/kʙ           0.000000e+00 [K]
    polarization/kʙ              0.000000e+00 [K]
    dU/dlambda VDW/kʙ            0.000000e+00 [K]
    dU/dlambda Real/kʙ           0.000000e+00 [K]
    dU/dlambda Ewald/kʙ          0.000000e+00 [K]





Initialization: Current cycle: 0 out of 1000
===============================================================================

Box:      30.00000   0.00000   0.00000
           0.00000  30.00000   0.00000
           0.00000   0.00000  30.00000
Lengths:  30.00000  30.00000  30.00000
Angles:   90.00000  90.00000  90.00000
Rectangular boundary conditions

net charge:   0.00000000

component   0 (CO2) lambda:  0 occupancy:  1 (1.000000)
    net charge:   0.00000000 [e]

Amount of molecules per component :
-------------------------------------------------------------------------------
Component 0 (CO2)
    molecules:         2.500000e+02 molecules
    number density:    9.259259e-03 molec/A^3
    density:           6.764973e+02 kg/m^3

Total potential energy/kʙ       -1.687078e+05 [K]
-------------------------------------------------------------------------------
    external field VDW/kʙ        0.000000e+00 [K]
    external field Real/kʙ       0.000000e+00 [K]
    framework-molecule VDW/kʙ    0.000000e+00 [K]
    framework-molecule Real/kʙ   0.000000e+00 [K]
    molecule-molecule VDW/kʙ    -1.304988e+05 [K]
    molecule-molecule Real/kʙ   -2.381559e+04 [K]
    Van der Waals (Tail)/kʙ     -7.427197e+03 [K]
    Ewald Fourier/kʙ             2.936090e+04 [K]
    Ewald self/kʙ               -5.557308e+06 [K]
    Ewald exclusion/kʙ           5.520981e+06 [K]
    intra VDW/kʙ                 0.000000e+00 [K]
    intra Coulombic/kʙ           0.000000e+00 [K]
    polarization/kʙ              0.000000e+00 [K]
    dU/dlambda VDW/kʙ            0.000000e+00 [K]
    dU/dlambda Real/kʙ           0.000000e+00 [K]
    dU/dlambda Ewald/kʙ          0.000000e+00 [K]


Initialization: Current cycle: 100 out of 1000
===============================================================================

Box:      27.29838   0.00000   0.00000
           0.00000  27.29838   0.00000
           0.00000   0.00000  27.29838
Lengths:  27.29838  27.29838  27.29838
Angles:   90.00000  90.00000  90.00000
Rectangular boundary conditions

net charge:   0.00000000

component   0 (CO2) lambda:  0 occupancy:  1 (1.000000)
    net charge:   0.00000000 [e]

Amount of molecules per component :
-------------------------------------------------------------------------------
Component 0 (CO2)
    molecules:         2.500000e+02 molecules
    number density:    1.228936e-02 molec/A^3
    density:           8.978818e+02 kg/m^3

Total potential energy/kʙ       -3.164803e+05 [K]
-------------------------------------------------------------------------------
    external field VDW/kʙ        0.000000e+00 [K]
    external field Real/kʙ       0.000000e+00 [K]
    framework-molecule VDW/kʙ    0.000000e+00 [K]
    framework-molecule Real/kʙ   0.000000e+00 [K]
    molecule-molecule VDW/kʙ    -2.247528e+05 [K]
    molecule-molecule Real/kʙ   -6.548435e+04 [K]
    Van der Waals (Tail)/kʙ     -9.857755e+03 [K]
    Ewald Fourier/kʙ             1.994176e+04 [K]
    Ewald self/kʙ               -5.557308e+06 [K]
    Ewald exclusion/kʙ           5.520981e+06 [K]
    intra VDW/kʙ                 0.000000e+00 [K]
    intra Coulombic/kʙ           0.000000e+00 [K]
    polarization/kʙ              0.000000e+00 [K]
    dU/dlambda VDW/kʙ            0.000000e+00 [K]
    dU/dlambda Real/kʙ           0.000000e+00 [K]
    dU/dlambda Ewald/kʙ          0.000000e+00 [K]


Initialization: Current cycle: 200 out of 1000
===============================================================================

Box:      26.55301   0.00000   0.00000
           0.00000  26.55301   0.00000
           0.00000   0.00000  26.55301
Lengths:  26.55301  26.55301  26.55301
Angles:   90.00000  90.00000  90.00000
Rectangular boundary conditions

net charge:   0.00000000

component   0 (CO2) lambda:  0 occupancy:  1 (1.000000)
    net charge:   0.00000000 [e]

Amount of molecules per component :
-------------------------------------------------------------------------------
Component 0 (CO2)
    molecules:         2.500000e+02 molecules
    number density:    1.335360e-02 molec/A^3
    density:           9.756372e+02 kg/m^3

Total potential energy/kʙ       -3.481094e+05 [K]
-------------------------------------------------------------------------------
    external field VDW/kʙ        0.000000e+00 [K]
    external field Real/kʙ       0.000000e+00 [K]
    framework-molecule VDW/kʙ    0.000000e+00 [K]
    framework-molecule Real/kʙ   0.000000e+00 [K]
    molecule-molecule VDW/kʙ    -2.469355e+05 [K]
    molecule-molecule Real/kʙ   -7.175360e+04 [K]
    Van der Waals (Tail)/kʙ     -1.071142e+04 [K]
    Ewald Fourier/kʙ             1.761826e+04 [K]
    Ewald self/kʙ               -5.557308e+06 [K]
    Ewald exclusion/kʙ           5.520981e+06 [K]
    intra VDW/kʙ                 0.000000e+00 [K]
    intra Coulombic/kʙ           0.000000e+00 [K]
    polarization/kʙ              0.000000e+00 [K]
    dU/dlambda VDW/kʙ            0.000000e+00 [K]
    dU/dlambda Real/kʙ           0.000000e+00 [K]
    dU/dlambda Ewald/kʙ          0.000000e+00 [K]


Initialization: Current cycle: 300 out of 1000
===============================================================================

Box:      26.15154   0.00000   0.00000
           0.00000  26.15154   0.00000
           0.00000   0.00000  26.15154
Lengths:  26.15154  26.15154  26.15154
Angles:   90.00000  90.00000  90.00000
Rectangular boundary conditions

net charge:   0.00000000

component   0 (CO2) lambda:  0 occupancy:  1 (1.000000)
    net charge:   0.00000000 [e]

Amount of molecules per component :
-------------------------------------------------------------------------------
Component 0 (CO2)
    molecules:         2.500000e+02 molecules
    number density:    1.397811e-02 molec/A^3
    density:           1.021264e+03 kg/m^3

Total potential energy/kʙ       -3.615136e+05 [K]
-------------------------------------------------------------------------------
    external field VDW/kʙ        0.000000e+00 [K]
    external field Real/kʙ       0.000000e+00 [K]
    framework-molecule VDW/kʙ    0.000000e+00 [K]
    framework-molecule Real/kʙ   0.000000e+00 [K]
    molecule-molecule VDW/kʙ    -2.624882e+05 [K]
    molecule-molecule Real/kʙ   -6.905269e+04 [K]
    Van der Waals (Tail)/kʙ     -1.121236e+04 [K]
    Ewald Fourier/kʙ             1.756679e+04 [K]
    Ewald self/kʙ               -5.557308e+06 [K]
    Ewald exclusion/kʙ           5.520981e+06 [K]
    intra VDW/kʙ                 0.000000e+00 [K]
    intra Coulombic/kʙ           0.000000e+00 [K]
    polarization/kʙ              0.000000e+00 [K]
    dU/dlambda VDW/kʙ            0.000000e+00 [K]
    dU/dlambda Real/kʙ           0.000000e+00 [K]
    dU/dlambda Ewald/kʙ          0.000000e+00 [K]


Initialization: Current cycle: 400 out of 1000
===============================================================================

Box:      25.96272   0.00000   0.00000
           0.00000  25.96272   0.00000
           0.00000   0.00000  25.96272
Lengths:  25.96272  25.96272  25.96272
Angles:   90.00000  90.00000  90.00000
Rectangular boundary conditions

net charge:   0.00000000

component   0 (CO2) lambda:  0 occupancy:  1 (1.000000)
    net charge:   0.00000000 [e]

Amount of molecules per component :
-------------------------------------------------------------------------------
Component 0 (CO2)
    molecules:         2.500000e+02 molecules
    number density:    1.428530e-02 molec/A^3
    density:           1.043708e+03 kg/m^3

Total potential energy/kʙ       -3.749504e+05 [K]
-------------------------------------------------------------------------------
    external field VDW/kʙ        0.000000e+00 [K]
    external field Real/kʙ       0.000000e+00 [K]
    framework-molecule VDW/kʙ    0.000000e+00 [K]
    framework-molecule Real/kʙ   0.000000e+00 [K]
    molecule-molecule VDW/kʙ    -2.681516e+05 [K]
    molecule-molecule Real/kʙ   -7.638467e+04 [K]
    Van der Waals (Tail)/kʙ     -1.145877e+04 [K]
    Ewald Fourier/kʙ             1.737186e+04 [K]
    Ewald self/kʙ               -5.557308e+06 [K]
    Ewald exclusion/kʙ           5.520981e+06 [K]
    intra VDW/kʙ                 0.000000e+00 [K]
    intra Coulombic/kʙ           0.000000e+00 [K]
    polarization/kʙ              0.000000e+00 [K]
    dU/dlambda VDW/kʙ            0.000000e+00 [K]
    dU/dlambda Real/kʙ           0.000000e+00 [K]
    dU/dlambda Ewald/kʙ          0.000000e+00 [K]


Initialization: Current cycle: 500 out of 1000
===============================================================================

Box:      25.92762   0.00000   0.00000
           0.00000  25.92762   0.00000
           0.00000   0.00000  25.92762
Lengths:  25.92762  25.92762  25.92762
Angles:   90.00000  90.00000  90.00000
Rectangular boundary conditions

net charge:   0.00000000

component   0 (CO2) lambda:  0 occupancy:  1 (1.000000)
    net charge:   0.00000000 [e]

Amount of molecules per component :
-------------------------------------------------------------------------------
Component 0 (CO2)
    molecules:         2.500000e+02 molecules
    number density:    1.434340e-02 molec/A^3
    density:           1.047953e+03 kg/m^3

Total potential energy/kʙ       -3.737070e+05 [K]
-------------------------------------------------------------------------------
    external field VDW/kʙ        0.000000e+00 [K]
    external field Real/kʙ       0.000000e+00 [K]
    framework-molecule VDW/kʙ    0.000000e+00 [K]
    framework-molecule Real/kʙ   0.000000e+00 [K]
    molecule-molecule VDW/kʙ    -2.676887e+05 [K]
    molecule-molecule Real/kʙ   -7.599878e+04 [K]
    Van der Waals (Tail)/kʙ     -1.150537e+04 [K]
    Ewald Fourier/kʙ             1.781299e+04 [K]
    Ewald self/kʙ               -5.557308e+06 [K]
    Ewald exclusion/kʙ           5.520981e+06 [K]
    intra VDW/kʙ                 0.000000e+00 [K]
    intra Coulombic/kʙ           0.000000e+00 [K]
    polarization/kʙ              0.000000e+00 [K]
    dU/dlambda VDW/kʙ            0.000000e+00 [K]
    dU/dlambda Real/kʙ           0.000000e+00 [K]
    dU/dlambda Ewald/kʙ          0.000000e+00 [K]


Initialization: Current cycle: 600 out of 1000
===============================================================================

Box:      25.44887   0.00000   0.00000
           0.00000  25.44887   0.00000
           0.00000   0.00000  25.44887
Lengths:  25.44887  25.44887  25.44887
Angles:   90.00000  90.00000  90.00000
Rectangular boundary conditions

net charge:   0.00000000

component   0 (CO2) lambda:  0 occupancy:  1 (1.000000)
    net charge:   0.00000000 [e]

Amount of molecules per component :
-------------------------------------------------------------------------------
Component 0 (CO2)
    molecules:         2.500000e+02 molecules
    number density:    1.516822e-02 molec/A^3
    density:           1.108216e+03 kg/m^3

Total potential energy/kʙ       -3.942283e+05 [K]
-------------------------------------------------------------------------------
    external field VDW/kʙ        0.000000e+00 [K]
    external field Real/kʙ       0.000000e+00 [K]
    framework-molecule VDW/kʙ    0.000000e+00 [K]
    framework-molecule Real/kʙ   0.000000e+00 [K]
    molecule-molecule VDW/kʙ    -2.814035e+05 [K]
    molecule-molecule Real/kʙ   -8.106310e+04 [K]
    Van der Waals (Tail)/kʙ     -1.216699e+04 [K]
    Ewald Fourier/kʙ             1.673234e+04 [K]
    Ewald self/kʙ               -5.557308e+06 [K]
    Ewald exclusion/kʙ           5.520981e+06 [K]
    intra VDW/kʙ                 0.000000e+00 [K]
    intra Coulombic/kʙ           0.000000e+00 [K]
    polarization/kʙ              0.000000e+00 [K]
    dU/dlambda VDW/kʙ            0.000000e+00 [K]
    dU/dlambda Real/kʙ           0.000000e+00 [K]
    dU/dlambda Ewald/kʙ          0.000000e+00 [K]


Initialization: Current cycle: 700 out of 1000
===============================================================================

Box:      25.58266   0.00000   0.00000
           0.00000  25.58266   0.00000
           0.00000   0.00000  25.58266
Lengths:  25.58266  25.58266  25.58266
Angles:   90.00000  90.00000  90.00000
Rectangular boundary conditions

net charge:   0.00000000

component   0 (CO2) lambda:  0 occupancy:  1 (1.000000)
    net charge:   0.00000000 [e]

Amount of molecules per component :
-------------------------------------------------------------------------------
Component 0 (CO2)
    molecules:         2.500000e+02 molecules
    number density:    1.493147e-02 molec/A^3
    density:           1.090919e+03 kg/m^3

Total potential energy/kʙ       -3.942742e+05 [K]
-------------------------------------------------------------------------------
    external field VDW/kʙ        0.000000e+00 [K]
    external field Real/kʙ       0.000000e+00 [K]
    framework-molecule VDW/kʙ    0.000000e+00 [K]
    framework-molecule Real/kʙ   0.000000e+00 [K]
    molecule-molecule VDW/kʙ    -2.847985e+05 [K]
    molecule-molecule Real/kʙ   -7.905916e+04 [K]
    Van der Waals (Tail)/kʙ     -1.197709e+04 [K]
    Ewald Fourier/kʙ             1.788766e+04 [K]
    Ewald self/kʙ               -5.557308e+06 [K]
    Ewald exclusion/kʙ           5.520981e+06 [K]
    intra VDW/kʙ                 0.000000e+00 [K]
    intra Coulombic/kʙ           0.000000e+00 [K]
    polarization/kʙ              0.000000e+00 [K]
    dU/dlambda VDW/kʙ            0.000000e+00 [K]
    dU/dlambda Real/kʙ           0.000000e+00 [K]
    dU/dlambda Ewald/kʙ          0.000000e+00 [K]


Initialization: Current cycle: 800 out of 1000
===============================================================================

Box:      25.42939   0.00000   0.00000
           0.00000  25.42939   0.00000
           0.00000   0.00000  25.42939
Lengths:  25.42939  25.42939  25.42939
Angles:   90.00000  90.00000  90.00000
Rectangular boundary conditions

net charge:   0.00000000

component   0 (CO2) lambda:  0 occupancy:  1 (1.000000)
    net charge:   0.00000000 [e]

Amount of molecules per component :
-------------------------------------------------------------------------------
Component 0 (CO2)
    molecules:         2.500000e+02 molecules
    number density:    1.520311e-02 molec/A^3
    density:           1.110765e+03 kg/m^3

Total potential energy/kʙ       -4.113021e+05 [K]
-------------------------------------------------------------------------------
    external field VDW/kʙ        0.000000e+00 [K]
    external field Real/kʙ       0.000000e+00 [K]
    framework-molecule VDW/kʙ    0.000000e+00 [K]
    framework-molecule Real/kʙ   0.000000e+00 [K]
    molecule-molecule VDW/kʙ    -2.919605e+05 [K]
    molecule-molecule Real/kʙ   -8.671276e+04 [K]
    Van der Waals (Tail)/kʙ     -1.219498e+04 [K]
    Ewald Fourier/kʙ             1.589326e+04 [K]
    Ewald self/kʙ               -5.557308e+06 [K]
    Ewald exclusion/kʙ           5.520981e+06 [K]
    intra VDW/kʙ                 0.000000e+00 [K]
    intra Coulombic/kʙ           0.000000e+00 [K]
    polarization/kʙ              0.000000e+00 [K]
    dU/dlambda VDW/kʙ            0.000000e+00 [K]
    dU/dlambda Real/kʙ           0.000000e+00 [K]
    dU/dlambda Ewald/kʙ          0.000000e+00 [K]


Initialization: Current cycle: 900 out of 1000
===============================================================================

Box:      25.48275   0.00000   0.00000
           0.00000  25.48275   0.00000
           0.00000   0.00000  25.48275
Lengths:  25.48275  25.48275  25.48275
Angles:   90.00000  90.00000  90.00000
Rectangular boundary conditions

net charge:   0.00000000

component   0 (CO2) lambda:  0 occupancy:  1 (1.000000)
    net charge:   0.00000000 [e]

Amount of molecules per component :
-------------------------------------------------------------------------------
Component 0 (CO2)
    molecules:         2.500000e+02 molecules
    number density:    1.510780e-02 molec/A^3
    density:           1.103802e+03 kg/m^3

Total potential energy/kʙ       -4.006407e+05 [K]
-------------------------------------------------------------------------------
    external field VDW/kʙ        0.000000e+00 [K]
    external field Real/kʙ       0.000000e+00 [K]
    framework-molecule VDW/kʙ    0.000000e+00 [K]
    framework-molecule Real/kʙ   0.000000e+00 [K]
    molecule-molecule VDW/kʙ    -2.820605e+05 [K]
    molecule-molecule Real/kʙ   -8.617893e+04 [K]
    Van der Waals (Tail)/kʙ     -1.211853e+04 [K]
    Ewald Fourier/kʙ             1.604440e+04 [K]
    Ewald self/kʙ               -5.557308e+06 [K]
    Ewald exclusion/kʙ           5.520981e+06 [K]
    intra VDW/kʙ                 0.000000e+00 [K]
    intra Coulombic/kʙ           0.000000e+00 [K]
    polarization/kʙ              0.000000e+00 [K]
    dU/dlambda VDW/kʙ            0.000000e+00 [K]
    dU/dlambda Real/kʙ           0.000000e+00 [K]
    dU/dlambda Ewald/kʙ          0.000000e+00 [K]


Current cycle: 0 out of 5000
===============================================================================

Box:      25.35199   0.00000   0.00000  Average:  25.35199   0.00000   0.00000
           0.00000  25.35199   0.00000             0.00000  25.35199   0.00000
           0.00000   0.00000  25.35199             0.00000   0.00000  25.35199
Lengths:  25.35199  25.35199  25.35199  Average:  25.35199  25.35199  25.35199
Angles:   90.00000  90.00000  90.00000  Average:  90.00000  90.00000  90.00000
Rectangular boundary conditions

net charge:   0.00000000

component 0 (CO2) lambda:  0 occupancy:  1 (1.000000)
    net charge:   0.00000000 [e]

Amount of molecules per component :
-------------------------------------------------------------------------------
Component 0 (CO2)
    molecules:      2.500000e+02 molecules  (2.500000e+02 +/- 0.000000e+00)
    number density: 1.534278e-02 molec./A^3 (1.534278e-02 +/- 0.000000e+00)
    density:        1.120969e+03 kg/m^3     (1.120969e+03 +/- 0.000000e+00)

Average pressure tensor: 
-------------------------------------------------------------------------------
 5.2958e+02  0.0000e+00  0.0000e+00 +/- 0.0000e+00 0.0000e+00 0.0000e+00 [bar]
 0.0000e+00  5.2958e+02  0.0000e+00 +/- 0.0000e+00 0.0000e+00 0.0000e+00 [bar]
 0.0000e+00  0.0000e+00  5.2958e+02 +/- 0.0000e+00 0.0000e+00 0.0000e+00 [bar]
Ideal-gas pressure:   5.295752e+02 +/ 0.000000e+00 [bar]
Excess pressure:      0.000000e+00 +/ 0.000000e+00 [bar]
Pressure:             5.295752e+02 +/ 0.000000e+00 [bar]

Total potential energy/kʙ  -4.149431e+05 (-4.149431e+05 +/- 0.000000e+00) [K]
-------------------------------------------------------------------------------
ExternalField-molecule
    Van der Waals/kʙ        0.000000e+00 ( 0.000000e+00 +/- 0.000000e+00) [K]
Framework-molecule
    Van der Waals/kʙ        0.000000e+00 ( 0.000000e+00 +/- 0.000000e+00) [K]
    Van der Waals (Tail)/kʙ 0.000000e+00 ( 0.000000e+00 +/- 0.000000e+00) [K]
    Coulombic Real/kʙ       0.000000e+00 ( 0.000000e+00 +/- 0.000000e+00) [K]
    Coulombic Fourier/kʙ    0.000000e+00 ( 0.000000e+00 +/- 0.000000e+00) [K]
Molecule-molecule
    Van der Waals/kʙ       -2.980991e+05 (-2.980991e+05 +/- 0.000000e+00) [K]
    Van der Waals (Tail)/kʙ-1.230701e+04 (-1.230701e+04 +/- 0.000000e+00) [K]
    Coulombic Real/kʙ      -8.395539e+04 (-8.395539e+04 +/- 0.000000e+00) [K]
    Coulombic Fourier/kʙ   -2.058163e+04 (-2.058163e+04 +/- 0.000000e+00) [K]
    Molecule Intra/kʙ       0.000000e+00 ( 0.000000e+00 +/- 0.000000e+00) [K]

Current cycle: 100 out of 5000
===============================================================================

Box:      25.27619   0.00000   0.00000  Average:  25.27760   0.00000   0.00000
           0.00000  25.27619   0.00000             0.00000  25.27760   0.00000
           0.00000   0.00000  25.27619             0.00000   0.00000  25.27760
Lengths:  25.27619  25.27619  25.27619  Average:  25.27760  25.27760  25.27760
Angles:   90.00000  90.00000  90.00000  Average:  90.00000  90.00000  90.00000
Rectangular boundary conditions

net charge:   0.00000000

component 0 (CO2) lambda:  0 occupancy:  1 (1.000000)
    net charge:   0.00000000 [e]

Amount of molecules per component :
-------------------------------------------------------------------------------
Component 0 (CO2)
    molecules:      2.500000e+02 molecules  (2.500000e+02 +/- 0.000000e+00)
    number density: 1.548123e-02 molec./A^3 (1.547977e-02 +/- 0.000000e+00)
    density:        1.131085e+03 kg/m^3     (1.130978e+03 +/- 0.000000e+00)

Average pressure tensor: 
-------------------------------------------------------------------------------
-4.6812e+01  8.5479e+01  9.7609e+01 +/- 0.0000e+00 0.0000e+00 0.0000e+00 [bar]
 8.5479e+01  5.2223e+02 -1.4546e+02 +/- 0.0000e+00 0.0000e+00 0.0000e+00 [bar]
 9.7609e+01 -1.4546e+02  1.8032e+02 +/- 0.0000e+00 0.0000e+00 0.0000e+00 [bar]
Ideal-gas pressure:   5.343037e+02 +/ 0.000000e+00 [bar]
Excess pressure:     -3.157260e+02 +/ 0.000000e+00 [bar]
Pressure:             2.185777e+02 +/ 0.000000e+00 [bar]

Total potential energy/kʙ  -4.146428e+05 (-4.155044e+05 +/- 0.000000e+00) [K]
-------------------------------------------------------------------------------
ExternalField-molecule
    Van der Waals/kʙ        0.000000e+00 ( 0.000000e+00 +/- 0.000000e+00) [K]
Framework-molecule
    Van der Waals/kʙ        0.000000e+00 ( 0.000000e+00 +/- 0.000000e+00) [K]
    Van der Waals (Tail)/kʙ 0.000000e+00 ( 0.000000e+00 +/- 0.000000e+00) [K]
    Coulombic Real/kʙ       0.000000e+00 ( 0.000000e+00 +/- 0.000000e+00) [K]
    Coulombic Fourier/kʙ    0.000000e+00 ( 0.000000e+00 +/- 0.000000e+00) [K]
Molecule-molecule
    Van der Waals/kʙ       -2.903947e+05 (-2.904903e+05 +/- 0.000000e+00) [K]
    Van der Waals (Tail)/kʙ-1.241807e+04 (-1.242509e+04 +/- 0.000000e+00) [K]
    Coulombic Real/kʙ      -8.975521e+04 (-9.160216e+04 +/- 0.000000e+00) [K]
    Coulombic Fourier/kʙ   -2.207486e+04 (-2.098684e+04 +/- 0.000000e+00) [K]
    Molecule Intra/kʙ       0.000000e+00 ( 0.000000e+00 +/- 0.000000e+00) [K]

Current cycle: 200 out of 5000
===============================================================================

Box:      25.41542   0.00000   0.00000  Average:  25.27693   0.00000   0.00000
           0.00000  25.41542   0.00000             0.00000  25.27693   0.00000
           0.00000   0.00000  25.41542             0.00000   0.00000  25.27693
Lengths:  25.41542  25.41542  25.41542  Average:  25.27693  25.27693  25.27693
Angles:   90.00000  90.00000  90.00000  Average:  90.00000  90.00000  90.00000
Rectangular boundary conditions

net charge:   0.00000000

component 0 (CO2) lambda:  0 occupancy:  1 (1.000000)
    net charge:   0.00000000 [e]

Amount of molecules per component :
-------------------------------------------------------------------------------
Component 0 (CO2)
    molecules:      2.500000e+02 molecules  (2.500000e+02 +/- 0.000000e+00)
    number density: 1.522819e-02 molec./A^3 (1.548086e-02 +/- 0.000000e+00)
    density:        1.112598e+03 kg/m^3     (1.131058e+03 +/- 0.000000e+00)

Average pressure tensor: 
-------------------------------------------------------------------------------
 4.3245e+01  5.9544e+01  6.9166e+01 +/- 0.0000e+00 0.0000e+00 0.0000e+00 [bar]
 5.9544e+01  3.8998e+02 -2.3096e+01 +/- 0.0000e+00 0.0000e+00 0.0000e+00 [bar]
 6.9166e+01 -2.3096e+01  1.7807e+02 +/- 0.0000e+00 0.0000e+00 0.0000e+00 [bar]
Ideal-gas pressure:   5.343415e+02 +/ 0.000000e+00 [bar]
Excess pressure:     -3.305769e+02 +/ 0.000000e+00 [bar]
Pressure:             2.037646e+02 +/ 0.000000e+00 [bar]

Total potential energy/kʙ  -4.141912e+05 (-4.147582e+05 +/- 0.000000e+00) [K]
-------------------------------------------------------------------------------
ExternalField-molecule
    Van der Waals/kʙ        0.000000e+00 ( 0.000000e+00 +/- 0.000000e+00) [K]
Framework-molecule
    Van der Waals/kʙ        0.000000e+00 ( 0.000000e+00 +/- 0.000000e+00) [K]
    Van der Waals (Tail)/kʙ 0.000000e+00 ( 0.000000e+00 +/- 0.000000e+00) [K]
    Coulombic Real/kʙ       0.000000e+00 ( 0.000000e+00 +/- 0.000000e+00) [K]
    Coulombic Fourier/kʙ    0.000000e+00 ( 0.000000e+00 +/- 0.000000e+00) [K]
Molecule-molecule
    Van der Waals/kʙ       -2.941025e+05 (-2.901103e+05 +/- 0.000000e+00) [K]
    Van der Waals (Tail)/kʙ-1.221510e+04 (-1.239900e+04 +/- 0.000000e+00) [K]
    Coulombic Real/kʙ      -8.635712e+04 (-9.096287e+04 +/- 0.000000e+00) [K]
    Coulombic Fourier/kʙ   -2.151640e+04 (-2.128599e+04 +/- 0.000000e+00) [K]
    Molecule Intra/kʙ       0.000000e+00 ( 0.000000e+00 +/- 0.000000e+00) [K]

Current cycle: 300 out of 5000
===============================================================================

Box:      25.46264   0.00000   0.00000  Average:  25.31391   0.00000   0.00000
           0.00000  25.46264   0.00000             0.00000  25.31391   0.00000
           0.00000   0.00000  25.46264             0.00000   0.00000  25.31391
Lengths:  25.46264  25.46264  25.46264  Average:  25.31391  25.31391  25.31391
Angles:   90.00000  90.00000  90.00000  Average:  90.00000  90.00000  90.00000
Rectangular boundary conditions

net charge:   0.00000000

component 0 (CO2) lambda:  0 occupancy:  1 (1.000000)
    net charge:   0.00000000 [e]

Amount of molecules per component :
-------------------------------------------------------------------------------
Component 0 (CO2)
    molecules:      2.500000e+02 molecules  (2.500000e+02 +/- 0.000000e+00)
    number density: 1.514363e-02 molec./A^3 (1.541385e-02 +/- 0.000000e+00)
    density:        1.106419e+03 kg/m^3     (1.126162e+03 +/- 0.000000e+00)

Average pressure tensor: 
-------------------------------------------------------------------------------
 4.4366e+01  6.0185e+01  1.2763e+00 +/- 0.0000e+00 0.0000e+00 0.0000e+00 [bar]
 6.0185e+01  2.6878e+02 -2.7080e+01 +/- 0.0000e+00 0.0000e+00 0.0000e+00 [bar]
 1.2763e+00 -2.7080e+01  1.6468e+02 +/- 0.0000e+00 0.0000e+00 0.0000e+00 [bar]
Ideal-gas pressure:   5.320285e+02 +/ 0.000000e+00 [bar]
Excess pressure:     -3.727535e+02 +/ 0.000000e+00 [bar]
Pressure:             1.592750e+02 +/ 0.000000e+00 [bar]

Total potential energy/kʙ  -4.043900e+05 (-4.120551e+05 +/- 0.000000e+00) [K]
-------------------------------------------------------------------------------
ExternalField-molecule
    Van der Waals/kʙ        0.000000e+00 ( 0.000000e+00 +/- 0.000000e+00) [K]
Framework-molecule
    Van der Waals/kʙ        0.000000e+00 ( 0.000000e+00 +/- 0.000000e+00) [K]
    Van der Waals (Tail)/kʙ 0.000000e+00 ( 0.000000e+00 +/- 0.000000e+00) [K]
    Coulombic Real/kʙ       0.000000e+00 ( 0.000000e+00 +/- 0.000000e+00) [K]
    Coulombic Fourier/kʙ    0.000000e+00 ( 0.000000e+00 +/- 0.000000e+00) [K]
Molecule-molecule
    Van der Waals/kʙ       -2.850760e+05 (-2.888034e+05 +/- 0.000000e+00) [K]
    Van der Waals (Tail)/kʙ-1.214727e+04 (-1.233899e+04 +/- 0.000000e+00) [K]
    Coulombic Real/kʙ      -8.720961e+04 (-8.990708e+04 +/- 0.000000e+00) [K]
    Coulombic Fourier/kʙ   -1.995711e+04 (-2.100564e+04 +/- 0.000000e+00) [K]
    Molecule Intra/kʙ       0.000000e+00 ( 0.000000e+00 +/- 0.000000e+00) [K]

Current cycle: 400 out of 5000
===============================================================================

Box:      25.11463   0.00000   0.00000  Average:  25.31344   0.00000   0.00000
           0.00000  25.11463   0.00000             0.00000  25.31344   0.00000
           0.00000   0.00000  25.11463             0.00000   0.00000  25.31344
Lengths:  25.11463  25.11463  25.11463  Average:  25.31344  25.31344  25.31344
Angles:   90.00000  90.00000  90.00000  Average:  90.00000  90.00000  90.00000
Rectangular boundary conditions

net charge:   0.00000000

component 0 (CO2) lambda:  0 occupancy:  1 (1.000000)
    net charge:   0.00000000 [e]

Amount of molecules per component :
-------------------------------------------------------------------------------
Component 0 (CO2)
    molecules:      2.500000e+02 molecules  (2.500000e+02 +/- 0.000000e+00)
    number density: 1.578191e-02 molec./A^3 (1.541488e-02 +/- 0.000000e+00)
    density:        1.153054e+03 kg/m^3     (1.126237e+03 +/- 0.000000e+00)

Average pressure tensor: 
-------------------------------------------------------------------------------
 1.1018e+02  5.8219e+01  1.4665e+00 +/- 0.0000e+00 0.0000e+00 0.0000e+00 [bar]
 5.8219e+01  2.2982e+02  4.2786e+00 +/- 0.0000e+00 0.0000e+00 0.0000e+00 [bar]
 1.4665e+00  4.2786e+00  1.7691e+02 +/- 0.0000e+00 0.0000e+00 0.0000e+00 [bar]
Ideal-gas pressure:   5.320639e+02 +/ 0.000000e+00 [bar]
Excess pressure:     -3.597589e+02 +/ 0.000000e+00 [bar]
Pressure:             1.723050e+02 +/ 0.000000e+00 [bar]

Total potential energy/kʙ  -4.145229e+05 (-4.109285e+05 +/- 0.000000e+00) [K]
-------------------------------------------------------------------------------
ExternalField-molecule
    Van der Waals/kʙ        0.000000e+00 ( 0.000000e+00 +/- 0.000000e+00) [K]
Framework-molecule
    Van der Waals/kʙ        0.000000e+00 ( 0.000000e+00 +/- 0.000000e+00) [K]
    Van der Waals (Tail)/kʙ 0.000000e+00 ( 0.000000e+00 +/- 0.000000e+00) [K]
    Coulombic Real/kʙ       0.000000e+00 ( 0.000000e+00 +/- 0.000000e+00) [K]
    Coulombic Fourier/kʙ    0.000000e+00 ( 0.000000e+00 +/- 0.000000e+00) [K]
Molecule-molecule
    Van der Waals/kʙ       -2.933274e+05 (-2.889577e+05 +/- 0.000000e+00) [K]
    Van der Waals (Tail)/kʙ-1.265926e+04 (-1.235743e+04 +/- 0.000000e+00) [K]
    Coulombic Real/kʙ      -8.813240e+04 (-8.880469e+04 +/- 0.000000e+00) [K]
    Coulombic Fourier/kʙ   -2.040388e+04 (-2.080870e+04 +/- 0.000000e+00) [K]
    Molecule Intra/kʙ       0.000000e+00 ( 0.000000e+00 +/- 0.000000e+00) [K]

Current cycle: 500 out of 5000
===============================================================================

Box:      25.32906   0.00000   0.00000  Average:  25.30467   0.00000   0.00000
           0.00000  25.32906   0.00000             0.00000  25.30467   0.00000
           0.00000   0.00000  25.32906             0.00000   0.00000  25.30467
Lengths:  25.32906  25.32906  25.32906  Average:  25.30467  25.30467  25.30467
Angles:   90.00000  90.00000  90.00000  Average:  90.00000  90.00000  90.00000
Rectangular boundary conditions

net charge:   0.00000000

component 0 (CO2) lambda:  0 occupancy:  1 (1.000000)
    net charge:   0.00000000 [e]

Amount of molecules per component :
-------------------------------------------------------------------------------
Component 0 (CO2)
    molecules:      2.500000e+02 molecules  (2.500000e+02 +/- 0.000000e+00)
    number density: 1.538447e-02 molec./A^3 (1.543082e-02 +/- 0.000000e+00)
    density:        1.124016e+03 kg/m^3     (1.127402e+03 +/- 0.000000e+00)

Average pressure tensor: 
-------------------------------------------------------------------------------
 9.2083e+01  3.7169e+01 -2.1553e+00 +/- 0.0000e+00 0.0000e+00 0.0000e+00 [bar]
 3.7169e+01  2.2536e+02 -1.7691e+01 +/- 0.0000e+00 0.0000e+00 0.0000e+00 [bar]
-2.1553e+00 -1.7691e+01  2.9420e+02 +/- 0.0000e+00 0.0000e+00 0.0000e+00 [bar]
Ideal-gas pressure:   5.326143e+02 +/ 0.000000e+00 [bar]
Excess pressure:     -3.287328e+02 +/ 0.000000e+00 [bar]
Pressure:             2.038815e+02 +/ 0.000000e+00 [bar]

Total potential energy/kʙ  -4.072167e+05 (-4.106405e+05 +/- 0.000000e+00) [K]
-------------------------------------------------------------------------------
ExternalField-molecule
    Van der Waals/kʙ        0.000000e+00 ( 0.000000e+00 +/- 0.000000e+00) [K]
Framework-molecule
    Van der Waals/kʙ        0.000000e+00 ( 0.000000e+00 +/- 0.000000e+00) [K]
    Van der Waals (Tail)/kʙ 0.000000e+00 ( 0.000000e+00 +/- 0.000000e+00) [K]
    Coulombic Real/kʙ       0.000000e+00 ( 0.000000e+00 +/- 0.000000e+00) [K]
    Coulombic Fourier/kʙ    0.000000e+00 ( 0.000000e+00 +/- 0.000000e+00) [K]
Molecule-molecule
    Van der Waals/kʙ       -2.868910e+05 (-2.890880e+05 +/- 0.000000e+00) [K]
    Van der Waals (Tail)/kʙ-1.234046e+04 (-1.237638e+04 +/- 0.000000e+00) [K]
    Coulombic Real/kʙ      -8.744572e+04 (-8.845132e+04 +/- 0.000000e+00) [K]
    Coulombic Fourier/kʙ   -2.053950e+04 (-2.072476e+04 +/- 0.000000e+00) [K]
    Molecule Intra/kʙ       0.000000e+00 ( 0.000000e+00 +/- 0.000000e+00) [K]

Current cycle: 600 out of 5000
===============================================================================

Box:      25.43304   0.00000   0.00000  Average:  25.31659   0.00000   0.00000
           0.00000  25.43304   0.00000             0.00000  25.31659   0.00000
           0.00000   0.00000  25.43304             0.00000   0.00000  25.31659
Lengths:  25.43304  25.43304  25.43304  Average:  25.31659  25.31659  25.31659
Angles:   90.00000  90.00000  90.00000  Average:  90.00000  90.00000  90.00000
Rectangular boundary conditions

net charge:   0.00000000

component 0 (CO2) lambda:  0 occupancy:  1 (1.000000)
    net charge:   0.00000000 [e]

Amount of molecules per component :
-------------------------------------------------------------------------------
Component 0 (CO2)
    molecules:      2.500000e+02 molecules  (2.500000e+02 +/- 0.000000e+00)
    number density: 1.519655e-02 molec./A^3 (1.540902e-02 +/- 0.000000e+00)
    density:        1.110286e+03 kg/m^3     (1.125809e+03 +/- 0.000000e+00)

Average pressure tensor: 
-------------------------------------------------------------------------------
 5.6253e+01  5.3882e+01 -2.6749e+01 +/- 0.0000e+00 0.0000e+00 0.0000e+00 [bar]
 5.3882e+01  2.0363e+02 -1.7423e+01 +/- 0.0000e+00 0.0000e+00 0.0000e+00 [bar]
-2.6749e+01 -1.7423e+01  2.4453e+02 +/- 0.0000e+00 0.0000e+00 0.0000e+00 [bar]
Ideal-gas pressure:   5.318616e+02 +/ 0.000000e+00 [bar]
Excess pressure:     -3.637228e+02 +/ 0.000000e+00 [bar]
Pressure:             1.681388e+02 +/ 0.000000e+00 [bar]

Total potential energy/kʙ  -4.015421e+05 (-4.095036e+05 +/- 0.000000e+00) [K]
-------------------------------------------------------------------------------
ExternalField-molecule
    Van der Waals/kʙ        0.000000e+00 ( 0.000000e+00 +/- 0.000000e+00) [K]
Framework-molecule
    Van der Waals/kʙ        0.000000e+00 ( 0.000000e+00 +/- 0.000000e+00) [K]
    Van der Waals (Tail)/kʙ 0.000000e+00 ( 0.000000e+00 +/- 0.000000e+00) [K]
    Coulombic Real/kʙ       0.000000e+00 ( 0.000000e+00 +/- 0.000000e+00) [K]
    Coulombic Fourier/kʙ    0.000000e+00 ( 0.000000e+00 +/- 0.000000e+00) [K]
Molecule-molecule
    Van der Waals/kʙ       -2.794939e+05 (-2.889475e+05 +/- 0.000000e+00) [K]
    Van der Waals (Tail)/kʙ-1.218972e+04 (-1.234933e+04 +/- 0.000000e+00) [K]
    Coulombic Real/kʙ      -8.863794e+04 (-8.749090e+04 +/- 0.000000e+00) [K]
    Coulombic Fourier/kʙ   -2.122060e+04 (-2.071586e+04 +/- 0.000000e+00) [K]
    Molecule Intra/kʙ       0.000000e+00 ( 0.000000e+00 +/- 0.000000e+00) [K]

Current cycle: 700 out of 5000
===============================================================================

Box:      25.51559   0.00000   0.00000  Average:  25.35198   0.00000   0.00000
           0.00000  25.51559   0.00000             0.00000  25.35198   0.00000
           0.00000   0.00000  25.51559             0.00000   0.00000  25.35198
Lengths:  25.51559  25.51559  25.51559  Average:  25.35198  25.35198  25.35198
Angles:   90.00000  90.00000  90.00000  Average:  90.00000  90.00000  90.00000
Rectangular boundary conditions

net charge:   0.00000000

component 0 (CO2) lambda:  0 occupancy:  1 (1.000000)
    net charge:   0.00000000 [e]

Amount of molecules per component :
-------------------------------------------------------------------------------
Component 0 (CO2)
    molecules:      2.500000e+02 molecules  (2.500000e+02 +/- 0.000000e+00)
    number density: 1.504954e-02 molec./A^3 (1.534554e-02 +/- 0.000000e+00)
    density:        1.099545e+03 kg/m^3     (1.121171e+03 +/- 0.000000e+00)

Average pressure tensor: 
-------------------------------------------------------------------------------
 3.0164e+01  4.6570e+01 -9.9259e+00 +/- 0.0000e+00 0.0000e+00 0.0000e+00 [bar]
 4.6570e+01  2.0842e+02 -1.6490e+01 +/- 0.0000e+00 0.0000e+00 0.0000e+00 [bar]
-9.9259e+00 -1.6490e+01  2.3045e+02 +/- 0.0000e+00 0.0000e+00 0.0000e+00 [bar]
Ideal-gas pressure:   5.296706e+02 +/ 0.000000e+00 [bar]
Excess pressure:     -3.733256e+02 +/ 0.000000e+00 [bar]
Pressure:             1.563450e+02 +/ 0.000000e+00 [bar]

Total potential energy/kʙ  -4.046550e+05 (-4.082152e+05 +/- 0.000000e+00) [K]
-------------------------------------------------------------------------------
ExternalField-molecule
    Van der Waals/kʙ        0.000000e+00 ( 0.000000e+00 +/- 0.000000e+00) [K]
Framework-molecule
    Van der Waals/kʙ        0.000000e+00 ( 0.000000e+00 +/- 0.000000e+00) [K]
    Van der Waals (Tail)/kʙ 0.000000e+00 ( 0.000000e+00 +/- 0.000000e+00) [K]
    Coulombic Real/kʙ       0.000000e+00 ( 0.000000e+00 +/- 0.000000e+00) [K]
    Coulombic Fourier/kʙ    0.000000e+00 ( 0.000000e+00 +/- 0.000000e+00) [K]
Molecule-molecule
    Van der Waals/kʙ       -2.796540e+05 (-2.878060e+05 +/- 0.000000e+00) [K]
    Van der Waals (Tail)/kʙ-1.207180e+04 (-1.229810e+04 +/- 0.000000e+00) [K]
    Coulombic Real/kʙ      -9.197889e+04 (-8.743884e+04 +/- 0.000000e+00) [K]
    Coulombic Fourier/kʙ   -2.095026e+04 (-2.067231e+04 +/- 0.000000e+00) [K]
    Molecule Intra/kʙ       0.000000e+00 ( 0.000000e+00 +/- 0.000000e+00) [K]

Current cycle: 800 out of 5000
===============================================================================

Box:      25.58696   0.00000   0.00000  Average:  25.38587   0.00000   0.00000
           0.00000  25.58696   0.00000             0.00000  25.38587   0.00000
           0.00000   0.00000  25.58696             0.00000   0.00000  25.38587
Lengths:  25.58696  25.58696  25.58696  Average:  25.38587  25.38587  25.38587
Angles:   90.00000  90.00000  90.00000  Average:  90.00000  90.00000  90.00000
Rectangular boundary conditions

net charge:   0.00000000

component 0 (CO2) lambda:  0 occupancy:  1 (1.000000)
    net charge:   0.00000000 [e]

Amount of molecules per component :
-------------------------------------------------------------------------------
Component 0 (CO2)
    molecules:      2.500000e+02 molecules  (2.500000e+02 +/- 0.000000e+00)
    number density: 1.492395e-02 molec./A^3 (1.528507e-02 +/- 0.000000e+00)
    density:        1.090369e+03 kg/m^3     (1.116754e+03 +/- 0.000000e+00)

Average pressure tensor: 
-------------------------------------------------------------------------------
 3.1717e+01  1.3438e+01  1.8460e+01 +/- 0.0000e+00 0.0000e+00 0.0000e+00 [bar]
 1.3438e+01  2.1343e+02 -2.2349e+01 +/- 0.0000e+00 0.0000e+00 0.0000e+00 [bar]
 1.8460e+01 -2.2349e+01  2.4419e+02 +/- 0.0000e+00 0.0000e+00 0.0000e+00 [bar]
Ideal-gas pressure:   5.275835e+02 +/ 0.000000e+00 [bar]
Excess pressure:     -3.644713e+02 +/ 0.000000e+00 [bar]
Pressure:             1.631122e+02 +/ 0.000000e+00 [bar]

Total potential energy/kʙ  -3.964467e+05 (-4.067556e+05 +/- 0.000000e+00) [K]
-------------------------------------------------------------------------------
ExternalField-molecule
    Van der Waals/kʙ        0.000000e+00 ( 0.000000e+00 +/- 0.000000e+00) [K]
Framework-molecule
    Van der Waals/kʙ        0.000000e+00 ( 0.000000e+00 +/- 0.000000e+00) [K]
    Van der Waals (Tail)/kʙ 0.000000e+00 ( 0.000000e+00 +/- 0.000000e+00) [K]
    Coulombic Real/kʙ       0.000000e+00 ( 0.000000e+00 +/- 0.000000e+00) [K]
    Coulombic Fourier/kʙ    0.000000e+00 ( 0.000000e+00 +/- 0.000000e+00) [K]
Molecule-molecule
    Van der Waals/kʙ       -2.812209e+05 (-2.866437e+05 +/- 0.000000e+00) [K]
    Van der Waals (Tail)/kʙ-1.197105e+04 (-1.225420e+04 +/- 0.000000e+00) [K]
    Coulombic Real/kʙ      -8.338604e+04 (-8.728004e+04 +/- 0.000000e+00) [K]
    Coulombic Fourier/kʙ   -1.986877e+04 (-2.057761e+04 +/- 0.000000e+00) [K]
    Molecule Intra/kʙ       0.000000e+00 ( 0.000000e+00 +/- 0.000000e+00) [K]

Current cycle: 900 out of 5000
===============================================================================

Box:      25.64800   0.00000   0.00000  Average:  25.40596   0.00000   0.00000
           0.00000  25.64800   0.00000             0.00000  25.40596   0.00000
           0.00000   0.00000  25.64800             0.00000   0.00000  25.40596
Lengths:  25.64800  25.64800  25.64800  Average:  25.40596  25.40596  25.40596
Angles:   90.00000  90.00000  90.00000  Average:  90.00000  90.00000  90.00000
Rectangular boundary conditions

net charge:   0.00000000

component 0 (CO2) lambda:  0 occupancy:  1 (1.000000)
    net charge:   0.00000000 [e]

Amount of molecules per component :
-------------------------------------------------------------------------------
Component 0 (CO2)
    molecules:      2.500000e+02 molecules  (2.500000e+02 +/- 0.000000e+00)
    number density: 1.481766e-02 molec./A^3 (1.524897e-02 +/- 0.000000e+00)
    density:        1.082603e+03 kg/m^3     (1.114116e+03 +/- 0.000000e+00)

Average pressure tensor: 
-------------------------------------------------------------------------------
 4.7738e+01  1.0635e+01  1.1006e+01 +/- 0.0000e+00 0.0000e+00 0.0000e+00 [bar]
 1.0635e+01  2.2514e+02 -2.3749e+01 +/- 0.0000e+00 0.0000e+00 0.0000e+00 [bar]
 1.1006e+01 -2.3749e+01  2.6028e+02 +/- 0.0000e+00 0.0000e+00 0.0000e+00 [bar]
Ideal-gas pressure:   5.263374e+02 +/ 0.000000e+00 [bar]
Excess pressure:     -3.486208e+02 +/ 0.000000e+00 [bar]
Pressure:             1.777166e+02 +/ 0.000000e+00 [bar]

Total potential energy/kʙ  -4.020857e+05 (-4.058027e+05 +/- 0.000000e+00) [K]
-------------------------------------------------------------------------------
ExternalField-molecule
    Van der Waals/kʙ        0.000000e+00 ( 0.000000e+00 +/- 0.000000e+00) [K]
Framework-molecule
    Van der Waals/kʙ        0.000000e+00 ( 0.000000e+00 +/- 0.000000e+00) [K]
    Van der Waals (Tail)/kʙ 0.000000e+00 ( 0.000000e+00 +/- 0.000000e+00) [K]
    Coulombic Real/kʙ       0.000000e+00 ( 0.000000e+00 +/- 0.000000e+00) [K]
    Coulombic Fourier/kʙ    0.000000e+00 ( 0.000000e+00 +/- 0.000000e+00) [K]
Molecule-molecule
    Van der Waals/kʙ       -2.790655e+05 (-2.858593e+05 +/- 0.000000e+00) [K]
    Van der Waals (Tail)/kʙ-1.188579e+04 (-1.222836e+04 +/- 0.000000e+00) [K]
    Coulombic Real/kʙ      -9.015724e+04 (-8.710535e+04 +/- 0.000000e+00) [K]
    Coulombic Fourier/kʙ   -2.097720e+04 (-2.060977e+04 +/- 0.000000e+00) [K]
    Molecule Intra/kʙ       0.000000e+00 ( 0.000000e+00 +/- 0.000000e+00) [K]

Current cycle: 1000 out of 5000
===============================================================================

Box:      25.28974   0.00000   0.00000  Average:  25.40530   0.00000   0.00000
           0.00000  25.28974   0.00000             0.00000  25.40530   0.00000
           0.00000   0.00000  25.28974             0.00000   0.00000  25.40530
Lengths:  25.28974  25.28974  25.28974  Average:  25.40530  25.40530  25.40530
Angles:   90.00000  90.00000  90.00000  Average:  90.00000  90.00000  90.00000
Rectangular boundary conditions

net charge:   0.00000000

component 0 (CO2) lambda:  0 occupancy:  1 (1.000000)
    net charge:   0.00000000 [e]

Amount of molecules per component :
-------------------------------------------------------------------------------
Component 0 (CO2)
    molecules:      2.500000e+02 molecules  (2.500000e+02 +/- 0.000000e+00)
    number density: 1.545635e-02 molec./A^3 (1.524990e-02 +/- 0.000000e+00)
    density:        1.129268e+03 kg/m^3     (1.114184e+03 +/- 0.000000e+00)

Average pressure tensor: 
-------------------------------------------------------------------------------
 6.1046e+01  3.3020e+01  1.1495e+00 +/- 0.0000e+00 0.0000e+00 0.0000e+00 [bar]
 3.3020e+01  2.3184e+02 -2.8594e+01 +/- 0.0000e+00 0.0000e+00 0.0000e+00 [bar]
 1.1495e+00 -2.8594e+01  2.6552e+02 +/- 0.0000e+00 0.0000e+00 0.0000e+00 [bar]
Ideal-gas pressure:   5.263694e+02 +/ 0.000000e+00 [bar]
Excess pressure:     -3.402359e+02 +/ 0.000000e+00 [bar]
Pressure:             1.861335e+02 +/ 0.000000e+00 [bar]

Total potential energy/kʙ  -4.116786e+05 (-4.059767e+05 +/- 0.000000e+00) [K]
-------------------------------------------------------------------------------
ExternalField-molecule
    Van der Waals/kʙ        0.000000e+00 ( 0.000000e+00 +/- 0.000000e+00) [K]
Framework-molecule
    Van der Waals/kʙ        0.000000e+00 ( 0.000000e+00 +/- 0.000000e+00) [K]
    Van der Waals (Tail)/kʙ 0.000000e+00 ( 0.000000e+00 +/- 0.000000e+00) [K]
    Coulombic Real/kʙ       0.000000e+00 ( 0.000000e+00 +/- 0.000000e+00) [K]
    Coulombic Fourier/kʙ    0.000000e+00 ( 0.000000e+00 +/- 0.000000e+00) [K]
Molecule-molecule
    Van der Waals/kʙ       -2.923230e+05 (-2.858352e+05 +/- 0.000000e+00) [K]
    Van der Waals (Tail)/kʙ-1.239812e+04 (-1.223477e+04 +/- 0.000000e+00) [K]
    Coulombic Real/kʙ      -8.587000e+04 (-8.727319e+04 +/- 0.000000e+00) [K]
    Coulombic Fourier/kʙ   -2.108749e+04 (-2.063352e+04 +/- 0.000000e+00) [K]
    Molecule Intra/kʙ       0.000000e+00 ( 0.000000e+00 +/- 0.000000e+00) [K]

Current cycle: 1100 out of 5000
===============================================================================

Box:      25.37546   0.00000   0.00000  Average:  25.38888   0.00000   0.00000
           0.00000  25.37546   0.00000             0.00000  25.38888   0.00000
           0.00000   0.00000  25.37546             0.00000   0.00000  25.38888
Lengths:  25.37546  25.37546  25.37546  Average:  25.38888  25.38888  25.38888
Angles:   90.00000  90.00000  90.00000  Average:  90.00000  90.00000  90.00000
Rectangular boundary conditions

net charge:   0.00000000

component 0 (CO2) lambda:  0 occupancy:  1 (1.000000)
    net charge:   0.00000000 [e]

Amount of molecules per component :
-------------------------------------------------------------------------------
Component 0 (CO2)
    molecules:      2.500000e+02 molecules  (2.500000e+02 +/- 0.000000e+00)
    number density: 1.530024e-02 molec./A^3 (1.527974e-02 +/- 0.000000e+00)
    density:        1.117861e+03 kg/m^3     (1.116364e+03 +/- 0.000000e+00)

Average pressure tensor: 
-------------------------------------------------------------------------------
 7.3382e+01  3.4019e+01  3.3685e+00 +/- 0.0000e+00 0.0000e+00 0.0000e+00 [bar]
 3.4019e+01  2.0373e+02 -2.6897e+01 +/- 0.0000e+00 0.0000e+00 0.0000e+00 [bar]
 3.3685e+00 -2.6897e+01  2.9156e+02 +/- 0.0000e+00 0.0000e+00 0.0000e+00 [bar]
Ideal-gas pressure:   5.273995e+02 +/ 0.000000e+00 [bar]
Excess pressure:     -3.378430e+02 +/ 0.000000e+00 [bar]
Pressure:             1.895564e+02 +/ 0.000000e+00 [bar]

Total potential energy/kʙ  -3.989048e+05 (-4.064904e+05 +/- 0.000000e+00) [K]
-------------------------------------------------------------------------------
ExternalField-molecule
    Van der Waals/kʙ        0.000000e+00 ( 0.000000e+00 +/- 0.000000e+00) [K]
Framework-molecule
    Van der Waals/kʙ        0.000000e+00 ( 0.000000e+00 +/- 0.000000e+00) [K]
    Van der Waals (Tail)/kʙ 0.000000e+00 ( 0.000000e+00 +/- 0.000000e+00) [K]
    Coulombic Real/kʙ       0.000000e+00 ( 0.000000e+00 +/- 0.000000e+00) [K]
    Coulombic Fourier/kʙ    0.000000e+00 ( 0.000000e+00 +/- 0.000000e+00) [K]
Molecule-molecule
    Van der Waals/kʙ       -2.865172e+05 (-2.866895e+05 +/- 0.000000e+00) [K]
    Van der Waals (Tail)/kʙ-1.227289e+04 (-1.225828e+04 +/- 0.000000e+00) [K]
    Coulombic Real/kʙ      -8.040820e+04 (-8.695643e+04 +/- 0.000000e+00) [K]
    Coulombic Fourier/kʙ   -1.970650e+04 (-2.058622e+04 +/- 0.000000e+00) [K]
    Molecule Intra/kʙ       0.000000e+00 ( 0.000000e+00 +/- 0.000000e+00) [K]

Current cycle: 1200 out of 5000
===============================================================================

Box:      25.81894   0.00000   0.00000  Average:  25.39957   0.00000   0.00000
           0.00000  25.81894   0.00000             0.00000  25.39957   0.00000
           0.00000   0.00000  25.81894             0.00000   0.00000  25.39957
Lengths:  25.81894  25.81894  25.81894  Average:  25.39957  25.39957  25.39957
Angles:   90.00000  90.00000  90.00000  Average:  90.00000  90.00000  90.00000
Rectangular boundary conditions

net charge:   0.00000000

component 0 (CO2) lambda:  0 occupancy:  1 (1.000000)
    net charge:   0.00000000 [e]

Amount of molecules per component :
-------------------------------------------------------------------------------
Component 0 (CO2)
    molecules:      2.500000e+02 molecules  (2.500000e+02 +/- 0.000000e+00)
    number density: 1.452528e-02 molec./A^3 (1.526068e-02 +/- 0.000000e+00)
    density:        1.061242e+03 kg/m^3     (1.114972e+03 +/- 0.000000e+00)

Average pressure tensor: 
-------------------------------------------------------------------------------
 6.8605e+01  2.4118e+01  9.1438e+00 +/- 0.0000e+00 0.0000e+00 0.0000e+00 [bar]
 2.4118e+01  2.0315e+02 -4.3614e+01 +/- 0.0000e+00 0.0000e+00 0.0000e+00 [bar]
 9.1438e+00 -4.3614e+01  2.9661e+02 +/- 0.0000e+00 0.0000e+00 0.0000e+00 [bar]
Ideal-gas pressure:   5.267417e+02 +/ 0.000000e+00 [bar]
Excess pressure:     -3.372869e+02 +/ 0.000000e+00 [bar]
Pressure:             1.894548e+02 +/ 0.000000e+00 [bar]

Total potential energy/kʙ  -3.752567e+05 (-4.053621e+05 +/- 0.000000e+00) [K]
-------------------------------------------------------------------------------
ExternalField-molecule
    Van der Waals/kʙ        0.000000e+00 ( 0.000000e+00 +/- 0.000000e+00) [K]
Framework-molecule
    Van der Waals/kʙ        0.000000e+00 ( 0.000000e+00 +/- 0.000000e+00) [K]
    Van der Waals (Tail)/kʙ 0.000000e+00 ( 0.000000e+00 +/- 0.000000e+00) [K]
    Coulombic Real/kʙ       0.000000e+00 ( 0.000000e+00 +/- 0.000000e+00) [K]
    Coulombic Fourier/kʙ    0.000000e+00 ( 0.000000e+00 +/- 0.000000e+00) [K]
Molecule-molecule
    Van der Waals/kʙ       -2.681725e+05 (-2.862347e+05 +/- 0.000000e+00) [K]
    Van der Waals (Tail)/kʙ-1.165127e+04 (-1.224103e+04 +/- 0.000000e+00) [K]
    Coulombic Real/kʙ      -7.470298e+04 (-8.634665e+04 +/- 0.000000e+00) [K]
    Coulombic Fourier/kʙ   -2.073001e+04 (-2.053979e+04 +/- 0.000000e+00) [K]
    Molecule Intra/kʙ       0.000000e+00 ( 0.000000e+00 +/- 0.000000e+00) [K]

Current cycle: 1300 out of 5000
===============================================================================

Box:      25.50302   0.00000   0.00000  Average:  25.41186   0.00000   0.00000
           0.00000  25.50302   0.00000             0.00000  25.41186   0.00000
           0.00000   0.00000  25.50302             0.00000   0.00000  25.41186
Lengths:  25.50302  25.50302  25.50302  Average:  25.41186  25.41186  25.41186
Angles:   90.00000  90.00000  90.00000  Average:  90.00000  90.00000  90.00000
Rectangular boundary conditions

net charge:   0.00000000

component 0 (CO2) lambda:  0 occupancy:  1 (1.000000)
    net charge:   0.00000000 [e]

Amount of molecules per component :
-------------------------------------------------------------------------------
Component 0 (CO2)
    molecules:      2.500000e+02 molecules  (2.500000e+02 +/- 0.000000e+00)
    number density: 1.507180e-02 molec./A^3 (1.523865e-02 +/- 0.000000e+00)
    density:        1.101171e+03 kg/m^3     (1.113362e+03 +/- 0.000000e+00)

Average pressure tensor: 
-------------------------------------------------------------------------------
 7.4393e+01  4.2816e-01 -4.6138e+00 +/- 0.0000e+00 0.0000e+00 0.0000e+00 [bar]
 4.2816e-01  1.7985e+02 -3.8345e+01 +/- 0.0000e+00 0.0000e+00 0.0000e+00 [bar]
-4.6138e+00 -3.8345e+01  3.0791e+02 +/- 0.0000e+00 0.0000e+00 0.0000e+00 [bar]
Ideal-gas pressure:   5.259813e+02 +/ 0.000000e+00 [bar]
Excess pressure:     -3.386002e+02 +/ 0.000000e+00 [bar]
Pressure:             1.873811e+02 +/ 0.000000e+00 [bar]

Total potential energy/kʙ  -3.933550e+05 (-4.043636e+05 +/- 0.000000e+00) [K]
-------------------------------------------------------------------------------
ExternalField-molecule
    Van der Waals/kʙ        0.000000e+00 ( 0.000000e+00 +/- 0.000000e+00) [K]
Framework-molecule
    Van der Waals/kʙ        0.000000e+00 ( 0.000000e+00 +/- 0.000000e+00) [K]
    Van der Waals (Tail)/kʙ 0.000000e+00 ( 0.000000e+00 +/- 0.000000e+00) [K]
    Coulombic Real/kʙ       0.000000e+00 ( 0.000000e+00 +/- 0.000000e+00) [K]
    Coulombic Fourier/kʙ    0.000000e+00 ( 0.000000e+00 +/- 0.000000e+00) [K]
Molecule-molecule
    Van der Waals/kʙ       -2.882962e+05 (-2.858569e+05 +/- 0.000000e+00) [K]
    Van der Waals (Tail)/kʙ-1.208965e+04 (-1.222623e+04 +/- 0.000000e+00) [K]
    Coulombic Real/kʙ      -7.422468e+04 (-8.576025e+04 +/- 0.000000e+00) [K]
    Coulombic Fourier/kʙ   -1.874448e+04 (-2.052021e+04 +/- 0.000000e+00) [K]
    Molecule Intra/kʙ       0.000000e+00 ( 0.000000e+00 +/- 0.000000e+00) [K]

Current cycle: 1400 out of 5000
===============================================================================

Box:      25.63854   0.00000   0.00000  Average:  25.43129   0.00000   0.00000
           0.00000  25.63854   0.00000             0.00000  25.43129   0.00000
           0.00000   0.00000  25.63854             0.00000   0.00000  25.43129
Lengths:  25.63854  25.63854  25.63854  Average:  25.43129  25.43129  25.43129
Angles:   90.00000  90.00000  90.00000  Average:  90.00000  90.00000  90.00000
Rectangular boundary conditions

net charge:   0.00000000

component 0 (CO2) lambda:  0 occupancy:  1 (1.000000)
    net charge:   0.00000000 [e]

Amount of molecules per component :
-------------------------------------------------------------------------------
Component 0 (CO2)
    molecules:      2.500000e+02 molecules  (2.500000e+02 +/- 0.000000e+00)
    number density: 1.483406e-02 molec./A^3 (1.520427e-02 +/- 0.000000e+00)
    density:        1.083802e+03 kg/m^3     (1.110850e+03 +/- 0.000000e+00)

Average pressure tensor: 
-------------------------------------------------------------------------------
 7.5398e+01 -5.3938e+00 -1.1442e+01 +/- 0.0000e+00 0.0000e+00 0.0000e+00 [bar]
-5.3938e+00  1.7678e+02 -2.3069e+01 +/- 0.0000e+00 0.0000e+00 0.0000e+00 [bar]
-1.1442e+01 -2.3069e+01  3.0341e+02 +/- 0.0000e+00 0.0000e+00 0.0000e+00 [bar]
Ideal-gas pressure:   5.247945e+02 +/ 0.000000e+00 [bar]
Excess pressure:     -3.395984e+02 +/ 0.000000e+00 [bar]
Pressure:             1.851961e+02 +/ 0.000000e+00 [bar]

Total potential energy/kʙ  -3.821602e+05 (-4.025476e+05 +/- 0.000000e+00) [K]
-------------------------------------------------------------------------------
ExternalField-molecule
    Van der Waals/kʙ        0.000000e+00 ( 0.000000e+00 +/- 0.000000e+00) [K]
Framework-molecule
    Van der Waals/kʙ        0.000000e+00 ( 0.000000e+00 +/- 0.000000e+00) [K]
    Van der Waals (Tail)/kʙ 0.000000e+00 ( 0.000000e+00 +/- 0.000000e+00) [K]
    Coulombic Real/kʙ       0.000000e+00 ( 0.000000e+00 +/- 0.000000e+00) [K]
    Coulombic Fourier/kʙ    0.000000e+00 ( 0.000000e+00 +/- 0.000000e+00) [K]
Molecule-molecule
    Van der Waals/kʙ       -2.793333e+05 (-2.851112e+05 +/- 0.000000e+00) [K]
    Van der Waals (Tail)/kʙ-1.189896e+04 (-1.219655e+04 +/- 0.000000e+00) [K]
    Coulombic Real/kʙ      -7.159872e+04 (-8.483210e+04 +/- 0.000000e+00) [K]
    Coulombic Fourier/kʙ   -1.932925e+04 (-2.040768e+04 +/- 0.000000e+00) [K]
    Molecule Intra/kʙ       0.000000e+00 ( 0.000000e+00 +/- 0.000000e+00) [K]

Current cycle: 1500 out of 5000
===============================================================================

Box:      25.62672   0.00000   0.00000  Average:  25.43903   0.00000   0.00000
           0.00000  25.62672   0.00000             0.00000  25.43903   0.00000
           0.00000   0.00000  25.62672             0.00000   0.00000  25.43903
Lengths:  25.62672  25.62672  25.62672  Average:  25.43903  25.43903  25.43903
Angles:   90.00000  90.00000  90.00000  Average:  90.00000  90.00000  90.00000
Rectangular boundary conditions

net charge:   0.00000000

component 0 (CO2) lambda:  0 occupancy:  1 (1.000000)
    net charge:   0.00000000 [e]

Amount of molecules per component :
-------------------------------------------------------------------------------
Component 0 (CO2)
    molecules:      2.500000e+02 molecules  (2.500000e+02 +/- 0.000000e+00)
    number density: 1.485460e-02 molec./A^3 (1.519032e-02 +/- 0.000000e+00)
    density:        1.085303e+03 kg/m^3     (1.109831e+03 +/- 0.000000e+00)

Average pressure tensor: 
-------------------------------------------------------------------------------
 9.4261e+01  4.9239e+00 -1.3965e+01 +/- 0.0000e+00 0.0000e+00 0.0000e+00 [bar]
 4.9239e+00  1.7875e+02 -7.3398e+00 +/- 0.0000e+00 0.0000e+00 0.0000e+00 [bar]
-1.3965e+01 -7.3398e+00  3.0279e+02 +/- 0.0000e+00 0.0000e+00 0.0000e+00 [bar]
Ideal-gas pressure:   5.243131e+02 +/ 0.000000e+00 [bar]
Excess pressure:     -3.323793e+02 +/ 0.000000e+00 [bar]
Pressure:             1.919338e+02 +/ 0.000000e+00 [bar]

Total potential energy/kʙ  -3.958363e+05 (-4.018439e+05 +/- 0.000000e+00) [K]
-------------------------------------------------------------------------------
ExternalField-molecule
    Van der Waals/kʙ        0.000000e+00 ( 0.000000e+00 +/- 0.000000e+00) [K]
Framework-molecule
    Van der Waals/kʙ        0.000000e+00 ( 0.000000e+00 +/- 0.000000e+00) [K]
    Van der Waals (Tail)/kʙ 0.000000e+00 ( 0.000000e+00 +/- 0.000000e+00) [K]
    Coulombic Real/kʙ       0.000000e+00 ( 0.000000e+00 +/- 0.000000e+00) [K]
    Coulombic Fourier/kʙ    0.000000e+00 ( 0.000000e+00 +/- 0.000000e+00) [K]
Molecule-molecule
    Van der Waals/kʙ       -2.820090e+05 (-2.849076e+05 +/- 0.000000e+00) [K]
    Van der Waals (Tail)/kʙ-1.191543e+04 (-1.218699e+04 +/- 0.000000e+00) [K]
    Coulombic Real/kʙ      -8.149607e+04 (-8.436958e+04 +/- 0.000000e+00) [K]
    Coulombic Fourier/kʙ   -2.041579e+04 (-2.037972e+04 +/- 0.000000e+00) [K]
    Molecule Intra/kʙ       0.000000e+00 ( 0.000000e+00 +/- 0.000000e+00) [K]

Current cycle: 1600 out of 5000
===============================================================================

Box:      25.59786   0.00000   0.00000  Average:  25.44761   0.00000   0.00000
           0.00000  25.59786   0.00000             0.00000  25.44761   0.00000
           0.00000   0.00000  25.59786             0.00000   0.00000  25.44761
Lengths:  25.59786  25.59786  25.59786  Average:  25.44761  25.44761  25.44761
Angles:   90.00000  90.00000  90.00000  Average:  90.00000  90.00000  90.00000
Rectangular boundary conditions

net charge:   0.00000000

component 0 (CO2) lambda:  0 occupancy:  1 (1.000000)
    net charge:   0.00000000 [e]

Amount of molecules per component :
-------------------------------------------------------------------------------
Component 0 (CO2)
    molecules:      2.500000e+02 molecules  (2.500000e+02 +/- 0.000000e+00)
    number density: 1.490491e-02 molec./A^3 (1.517492e-02 +/- 0.000000e+00)
    density:        1.088978e+03 kg/m^3     (1.108705e+03 +/- 0.000000e+00)

Average pressure tensor: 
-------------------------------------------------------------------------------
 8.2030e+01  1.3349e+01 -1.7964e+01 +/- 0.0000e+00 0.0000e+00 0.0000e+00 [bar]
 1.3349e+01  1.7634e+02  8.9942e+00 +/- 0.0000e+00 0.0000e+00 0.0000e+00 [bar]
-1.7964e+01  8.9942e+00  2.8981e+02 +/- 0.0000e+00 0.0000e+00 0.0000e+00 [bar]
Ideal-gas pressure:   5.237814e+02 +/ 0.000000e+00 [bar]
Excess pressure:     -3.410564e+02 +/ 0.000000e+00 [bar]
Pressure:             1.827249e+02 +/ 0.000000e+00 [bar]

Total potential energy/kʙ  -3.889416e+05 (-4.011502e+05 +/- 0.000000e+00) [K]
-------------------------------------------------------------------------------
ExternalField-molecule
    Van der Waals/kʙ        0.000000e+00 ( 0.000000e+00 +/- 0.000000e+00) [K]
Framework-molecule
    Van der Waals/kʙ        0.000000e+00 ( 0.000000e+00 +/- 0.000000e+00) [K]
    Van der Waals (Tail)/kʙ 0.000000e+00 ( 0.000000e+00 +/- 0.000000e+00) [K]
    Coulombic Real/kʙ       0.000000e+00 ( 0.000000e+00 +/- 0.000000e+00) [K]
    Coulombic Fourier/kʙ    0.000000e+00 ( 0.000000e+00 +/- 0.000000e+00) [K]
Molecule-molecule
    Van der Waals/kʙ       -2.749226e+05 (-2.845743e+05 +/- 0.000000e+00) [K]
    Van der Waals (Tail)/kʙ-1.195578e+04 (-1.217156e+04 +/- 0.000000e+00) [K]
    Coulombic Real/kʙ      -8.280406e+04 (-8.410426e+04 +/- 0.000000e+00) [K]
    Coulombic Fourier/kʙ   -1.925913e+04 (-2.030006e+04 +/- 0.000000e+00) [K]
    Molecule Intra/kʙ       0.000000e+00 ( 0.000000e+00 +/- 0.000000e+00) [K]

Current cycle: 1700 out of 5000
===============================================================================

Box:      25.65591   0.00000   0.00000  Average:  25.45340   0.00000   0.00000
           0.00000  25.65591   0.00000             0.00000  25.45340   0.00000
           0.00000   0.00000  25.65591             0.00000   0.00000  25.45340
Lengths:  25.65591  25.65591  25.65591  Average:  25.45340  25.45340  25.45340
Angles:   90.00000  90.00000  90.00000  Average:  90.00000  90.00000  90.00000
Rectangular boundary conditions

net charge:   0.00000000

component 0 (CO2) lambda:  0 occupancy:  1 (1.000000)
    net charge:   0.00000000 [e]

Amount of molecules per component :
-------------------------------------------------------------------------------
Component 0 (CO2)
    molecules:      2.500000e+02 molecules  (2.500000e+02 +/- 0.000000e+00)
    number density: 1.480395e-02 molec./A^3 (1.516449e-02 +/- 0.000000e+00)
    density:        1.081602e+03 kg/m^3     (1.107944e+03 +/- 0.000000e+00)

Average pressure tensor: 
-------------------------------------------------------------------------------
 8.9234e+01  1.8176e+01 -2.7365e+01 +/- 0.0000e+00 0.0000e+00 0.0000e+00 [bar]
 1.8176e+01  1.8512e+02  1.7661e+01 +/- 0.0000e+00 0.0000e+00 0.0000e+00 [bar]
-2.7365e+01  1.7661e+01  2.8051e+02 +/- 0.0000e+00 0.0000e+00 0.0000e+00 [bar]
Ideal-gas pressure:   5.234215e+02 +/ 0.000000e+00 [bar]
Excess pressure:     -3.384659e+02 +/ 0.000000e+00 [bar]
Pressure:             1.849556e+02 +/ 0.000000e+00 [bar]

Total potential energy/kʙ  -3.926308e+05 (-4.008989e+05 +/- 0.000000e+00) [K]
-------------------------------------------------------------------------------
ExternalField-molecule
    Van der Waals/kʙ        0.000000e+00 ( 0.000000e+00 +/- 0.000000e+00) [K]
Framework-molecule
    Van der Waals/kʙ        0.000000e+00 ( 0.000000e+00 +/- 0.000000e+00) [K]
    Van der Waals (Tail)/kʙ 0.000000e+00 ( 0.000000e+00 +/- 0.000000e+00) [K]
    Coulombic Real/kʙ       0.000000e+00 ( 0.000000e+00 +/- 0.000000e+00) [K]
    Coulombic Fourier/kʙ    0.000000e+00 ( 0.000000e+00 +/- 0.000000e+00) [K]
Molecule-molecule
    Van der Waals/kʙ       -2.767345e+05 (-2.842760e+05 +/- 0.000000e+00) [K]
    Van der Waals (Tail)/kʙ-1.187480e+04 (-1.216214e+04 +/- 0.000000e+00) [K]
    Coulombic Real/kʙ      -8.368285e+04 (-8.414692e+04 +/- 0.000000e+00) [K]
    Coulombic Fourier/kʙ   -2.033868e+04 (-2.031385e+04 +/- 0.000000e+00) [K]
    Molecule Intra/kʙ       0.000000e+00 ( 0.000000e+00 +/- 0.000000e+00) [K]

Current cycle: 1800 out of 5000
===============================================================================

Box:      25.62995   0.00000   0.00000  Average:  25.46355   0.00000   0.00000
           0.00000  25.62995   0.00000             0.00000  25.46355   0.00000
           0.00000   0.00000  25.62995             0.00000   0.00000  25.46355
Lengths:  25.62995  25.62995  25.62995  Average:  25.46355  25.46355  25.46355
Angles:   90.00000  90.00000  90.00000  Average:  90.00000  90.00000  90.00000
Rectangular boundary conditions

net charge:   0.00000000

component 0 (CO2) lambda:  0 occupancy:  1 (1.000000)
    net charge:   0.00000000 [e]

Amount of molecules per component :
-------------------------------------------------------------------------------
Component 0 (CO2)
    molecules:      2.500000e+02 molecules  (2.500000e+02 +/- 0.000000e+00)
    number density: 1.484898e-02 molec./A^3 (1.514642e-02 +/- 0.000000e+00)
    density:        1.084892e+03 kg/m^3     (1.106623e+03 +/- 0.000000e+00)

Average pressure tensor: 
-------------------------------------------------------------------------------
 9.3035e+01  1.6039e+01 -3.1113e+01 +/- 0.0000e+00 0.0000e+00 0.0000e+00 [bar]
 1.6039e+01  1.7512e+02  1.1519e+01 +/- 0.0000e+00 0.0000e+00 0.0000e+00 [bar]
-3.1113e+01  1.1519e+01  2.8238e+02 +/- 0.0000e+00 0.0000e+00 0.0000e+00 [bar]
Ideal-gas pressure:   5.227977e+02 +/ 0.000000e+00 [bar]
Excess pressure:     -3.392854e+02 +/ 0.000000e+00 [bar]
Pressure:             1.835123e+02 +/ 0.000000e+00 [bar]

Total potential energy/kʙ  -3.896202e+05 (-4.006505e+05 +/- 0.000000e+00) [K]
-------------------------------------------------------------------------------
ExternalField-molecule
    Van der Waals/kʙ        0.000000e+00 ( 0.000000e+00 +/- 0.000000e+00) [K]
Framework-molecule
    Van der Waals/kʙ        0.000000e+00 ( 0.000000e+00 +/- 0.000000e+00) [K]
    Van der Waals (Tail)/kʙ 0.000000e+00 ( 0.000000e+00 +/- 0.000000e+00) [K]
    Coulombic Real/kʙ       0.000000e+00 ( 0.000000e+00 +/- 0.000000e+00) [K]
    Coulombic Fourier/kʙ    0.000000e+00 ( 0.000000e+00 +/- 0.000000e+00) [K]
Molecule-molecule
    Van der Waals/kʙ       -2.717812e+05 (-2.838228e+05 +/- 0.000000e+00) [K]
    Van der Waals (Tail)/kʙ-1.191092e+04 (-1.214752e+04 +/- 0.000000e+00) [K]
    Coulombic Real/kʙ      -8.620859e+04 (-8.433482e+04 +/- 0.000000e+00) [K]
    Coulombic Fourier/kʙ   -1.971949e+04 (-2.034529e+04 +/- 0.000000e+00) [K]
    Molecule Intra/kʙ       0.000000e+00 ( 0.000000e+00 +/- 0.000000e+00) [K]

Current cycle: 1900 out of 5000
===============================================================================

Box:      25.51191   0.00000   0.00000  Average:  25.47718   0.00000   0.00000
           0.00000  25.51191   0.00000             0.00000  25.47718   0.00000
           0.00000   0.00000  25.51191             0.00000   0.00000  25.47718
Lengths:  25.51191  25.51191  25.51191  Average:  25.47718  25.47718  25.47718
Angles:   90.00000  90.00000  90.00000  Average:  90.00000  90.00000  90.00000
Rectangular boundary conditions

net charge:   0.00000000

component 0 (CO2) lambda:  0 occupancy:  1 (1.000000)
    net charge:   0.00000000 [e]

Amount of molecules per component :
-------------------------------------------------------------------------------
Component 0 (CO2)
    molecules:      2.500000e+02 molecules  (2.500000e+02 +/- 0.000000e+00)
    number density: 1.505606e-02 molec./A^3 (1.512241e-02 +/- 0.000000e+00)
    density:        1.100021e+03 kg/m^3     (1.104869e+03 +/- 0.000000e+00)

Average pressure tensor: 
-------------------------------------------------------------------------------
 1.0346e+02  9.2125e+00 -2.6213e+01 +/- 0.0000e+00 0.0000e+00 0.0000e+00 [bar]
 9.2125e+00  1.7071e+02  1.6617e+01 +/- 0.0000e+00 0.0000e+00 0.0000e+00 [bar]
-2.6213e+01  1.6617e+01  2.7602e+02 +/- 0.0000e+00 0.0000e+00 0.0000e+00 [bar]
Ideal-gas pressure:   5.219690e+02 +/ 0.000000e+00 [bar]
Excess pressure:     -3.385729e+02 +/ 0.000000e+00 [bar]
Pressure:             1.833961e+02 +/ 0.000000e+00 [bar]

Total potential energy/kʙ  -3.966758e+05 (-4.001172e+05 +/- 0.000000e+00) [K]
-------------------------------------------------------------------------------
ExternalField-molecule
    Van der Waals/kʙ        0.000000e+00 ( 0.000000e+00 +/- 0.000000e+00) [K]
Framework-molecule
    Van der Waals/kʙ        0.000000e+00 ( 0.000000e+00 +/- 0.000000e+00) [K]
    Van der Waals (Tail)/kʙ 0.000000e+00 ( 0.000000e+00 +/- 0.000000e+00) [K]
    Coulombic Real/kʙ       0.000000e+00 ( 0.000000e+00 +/- 0.000000e+00) [K]
    Coulombic Fourier/kʙ    0.000000e+00 ( 0.000000e+00 +/- 0.000000e+00) [K]
Molecule-molecule
    Van der Waals/kʙ       -2.807825e+05 (-2.833969e+05 +/- 0.000000e+00) [K]
    Van der Waals (Tail)/kʙ-1.207703e+04 (-1.212936e+04 +/- 0.000000e+00) [K]
    Coulombic Real/kʙ      -8.411656e+04 (-8.426999e+04 +/- 0.000000e+00) [K]
    Coulombic Fourier/kʙ   -1.969967e+04 (-2.032090e+04 +/- 0.000000e+00) [K]
    Molecule Intra/kʙ       0.000000e+00 ( 0.000000e+00 +/- 0.000000e+00) [K]

Current cycle: 2000 out of 5000
===============================================================================

Box:      25.64331   0.00000   0.00000  Average:  25.47852   0.00000   0.00000
           0.00000  25.64331   0.00000             0.00000  25.47852   0.00000
           0.00000   0.00000  25.64331             0.00000   0.00000  25.47852
Lengths:  25.64331  25.64331  25.64331  Average:  25.47852  25.47852  25.47852
Angles:   90.00000  90.00000  90.00000  Average:  90.00000  90.00000  90.00000
Rectangular boundary conditions

net charge:   0.00000000

component 0 (CO2) lambda:  0 occupancy:  1 (1.000000)
    net charge:   0.00000000 [e]

Amount of molecules per component :
-------------------------------------------------------------------------------
Component 0 (CO2)
    molecules:      2.500000e+02 molecules  (2.500000e+02 +/- 0.000000e+00)
    number density: 1.482579e-02 molec./A^3 (1.511987e-02 +/- 0.000000e+00)
    density:        1.083198e+03 kg/m^3     (1.104684e+03 +/- 0.000000e+00)

Average pressure tensor: 
-------------------------------------------------------------------------------
 1.0254e+02  6.0594e+00 -2.5906e+01 +/- 0.0000e+00 0.0000e+00 0.0000e+00 [bar]
 6.0594e+00  1.7798e+02  8.4572e+00 +/- 0.0000e+00 0.0000e+00 0.0000e+00 [bar]
-2.5906e+01  8.4572e+00  2.7062e+02 +/- 0.0000e+00 0.0000e+00 0.0000e+00 [bar]
Ideal-gas pressure:   5.218815e+02 +/ 0.000000e+00 [bar]
Excess pressure:     -3.381673e+02 +/ 0.000000e+00 [bar]
Pressure:             1.837142e+02 +/ 0.000000e+00 [bar]

Total potential energy/kʙ  -3.971647e+05 (-4.003071e+05 +/- 0.000000e+00) [K]
-------------------------------------------------------------------------------
ExternalField-molecule
    Van der Waals/kʙ        0.000000e+00 ( 0.000000e+00 +/- 0.000000e+00) [K]
Framework-molecule
    Van der Waals/kʙ        0.000000e+00 ( 0.000000e+00 +/- 0.000000e+00) [K]
    Van der Waals (Tail)/kʙ 0.000000e+00 ( 0.000000e+00 +/- 0.000000e+00) [K]
    Coulombic Real/kʙ       0.000000e+00 ( 0.000000e+00 +/- 0.000000e+00) [K]
    Coulombic Fourier/kʙ    0.000000e+00 ( 0.000000e+00 +/- 0.000000e+00) [K]
Molecule-molecule
    Van der Waals/kʙ       -2.816156e+05 (-2.833986e+05 +/- 0.000000e+00) [K]
    Van der Waals (Tail)/kʙ-1.189232e+04 (-1.212686e+04 +/- 0.000000e+00) [K]
    Coulombic Real/kʙ      -8.384475e+04 (-8.446914e+04 +/- 0.000000e+00) [K]
    Coulombic Fourier/kʙ   -1.981204e+04 (-2.031253e+04 +/- 0.000000e+00) [K]
    Molecule Intra/kʙ       0.000000e+00 ( 0.000000e+00 +/- 0.000000e+00) [K]

Current cycle: 2100 out of 5000
===============================================================================

Box:      25.58716   0.00000   0.00000  Average:  25.48089   0.00000   0.00000
           0.00000  25.58716   0.00000             0.00000  25.48089   0.00000
           0.00000   0.00000  25.58716             0.00000   0.00000  25.48089
Lengths:  25.58716  25.58716  25.58716  Average:  25.48089  25.48089  25.48089
Angles:   90.00000  90.00000  90.00000  Average:  90.00000  90.00000  90.00000
Rectangular boundary conditions

net charge:   0.00000000

component 0 (CO2) lambda:  0 occupancy:  1 (1.000000)
    net charge:   0.00000000 [e]

Amount of molecules per component :
-------------------------------------------------------------------------------
Component 0 (CO2)
    molecules:      2.500000e+02 molecules  (2.500000e+02 +/- 0.000000e+00)
    number density: 1.492361e-02 molec./A^3 (1.511550e-02 +/- 0.000000e+00)
    density:        1.090344e+03 kg/m^3     (1.104364e+03 +/- 0.000000e+00)

Average pressure tensor: 
-------------------------------------------------------------------------------
 1.0491e+02 -3.8772e+00 -2.8655e+01 +/- 0.0000e+00 0.0000e+00 0.0000e+00 [bar]
-3.8772e+00  1.6821e+02  3.4841e+00 +/- 0.0000e+00 0.0000e+00 0.0000e+00 [bar]
-2.8655e+01  3.4841e+00  2.6732e+02 +/- 0.0000e+00 0.0000e+00 0.0000e+00 [bar]
Ideal-gas pressure:   5.217306e+02 +/ 0.000000e+00 [bar]
Excess pressure:     -3.415827e+02 +/ 0.000000e+00 [bar]
Pressure:             1.801479e+02 +/ 0.000000e+00 [bar]

Total potential energy/kʙ  -3.991581e+05 (-4.004760e+05 +/- 0.000000e+00) [K]
-------------------------------------------------------------------------------
ExternalField-molecule
    Van der Waals/kʙ        0.000000e+00 ( 0.000000e+00 +/- 0.000000e+00) [K]
Framework-molecule
    Van der Waals/kʙ        0.000000e+00 ( 0.000000e+00 +/- 0.000000e+00) [K]
    Van der Waals (Tail)/kʙ 0.000000e+00 ( 0.000000e+00 +/- 0.000000e+00) [K]
[...]
    Coulombic Fourier/kʙ    0.000000e+00 ( 0.000000e+00 +/- 0.000000e+00) [K]
Molecule-molecule
    Van der Waals/kʙ       -2.818462e+05 (-2.834711e+05 +/- 6.066107e+03) [K]
    Van der Waals (Tail)/kʙ-1.188188e+04 (-1.211894e+04 +/- 2.358549e+02) [K]
    Coulombic Real/kʙ      -8.357696e+04 (-8.435106e+04 +/- 3.625727e+03) [K]
    Coulombic Fourier/kʙ   -2.028352e+04 (-2.030276e+04 +/- 7.122598e+02) [K]
    Molecule Intra/kʙ       0.000000e+00 ( 0.000000e+00 +/- 0.000000e+00) [K]

Current cycle: 4700 out of 5000
===============================================================================

Box:      25.61145   0.00000   0.00000  Average:  25.48689   0.00000   0.00000
           0.00000  25.61145   0.00000             0.00000  25.48689   0.00000
           0.00000   0.00000  25.61145             0.00000   0.00000  25.48689
Lengths:  25.61145  25.61145  25.61145  Average:  25.48689  25.48689  25.48689
Angles:   90.00000  90.00000  90.00000  Average:  90.00000  90.00000  90.00000
Rectangular boundary conditions

net charge:   0.00000000

component 0 (CO2) lambda:  0 occupancy:  1 (1.000000)
    net charge:   0.00000000 [e]

Amount of molecules per component :
-------------------------------------------------------------------------------
Component 0 (CO2)
    molecules:      2.500000e+02 molecules  (2.500000e+02 +/- 3.944933e-14)
    number density: 1.488119e-02 molec./A^3 (1.510507e-02 +/- 2.792994e-04)
    density:        1.087245e+03 kg/m^3     (1.103602e+03 +/- 2.040609e+01)

Average pressure tensor: 
-------------------------------------------------------------------------------
 1.7315e+02  2.0091e+01 -2.8545e+01 +/- 9.7703e+01 5.8288e+01 3.3890e+01 [bar]
 2.0091e+01  1.7586e+02  1.0133e+00 +/- 5.8288e+01 6.9116e+01 3.9331e+01 [bar]
-2.8545e+01  1.0133e+00  2.1317e+02 +/- 3.3890e+01 3.9331e+01 6.8914e+01 [bar]
Ideal-gas pressure:   5.213705e+02 +/ 9.640371e+00 [bar]
Excess pressure:     -3.339770e+02 +/ 3.262505e+01 [bar]
Pressure:             1.873935e+02 +/ 2.402193e+01 [bar]

Total potential energy/kʙ  -3.961826e+05 (-4.002128e+05 +/- 9.597411e+03) [K]
-------------------------------------------------------------------------------
ExternalField-molecule
    Van der Waals/kʙ        0.000000e+00 ( 0.000000e+00 +/- 0.000000e+00) [K]
Framework-molecule
    Van der Waals/kʙ        0.000000e+00 ( 0.000000e+00 +/- 0.000000e+00) [K]
    Van der Waals (Tail)/kʙ 0.000000e+00 ( 0.000000e+00 +/- 0.000000e+00) [K]
    Coulombic Real/kʙ       0.000000e+00 ( 0.000000e+00 +/- 0.000000e+00) [K]
    Coulombic Fourier/kʙ    0.000000e+00 ( 0.000000e+00 +/- 0.000000e+00) [K]
Molecule-molecule
    Van der Waals/kʙ       -2.752335e+05 (-2.833985e+05 +/- 5.689941e+03) [K]
    Van der Waals (Tail)/kʙ-1.193676e+04 (-1.211735e+04 +/- 2.176243e+02) [K]
    Coulombic Real/kʙ      -8.792775e+04 (-8.439154e+04 +/- 3.317464e+03) [K]
    Coulombic Fourier/kʙ   -2.108459e+04 (-2.030547e+04 +/- 6.323929e+02) [K]
    Molecule Intra/kʙ       0.000000e+00 ( 0.000000e+00 +/- 0.000000e+00) [K]

Current cycle: 4800 out of 5000
===============================================================================

Box:      25.87959   0.00000   0.00000  Average:  25.49183   0.00000   0.00000
           0.00000  25.87959   0.00000             0.00000  25.49183   0.00000
           0.00000   0.00000  25.87959             0.00000   0.00000  25.49183
Lengths:  25.87959  25.87959  25.87959  Average:  25.49183  25.49183  25.49183
Angles:   90.00000  90.00000  90.00000  Average:  90.00000  90.00000  90.00000
Rectangular boundary conditions

net charge:   0.00000000

component 0 (CO2) lambda:  0 occupancy:  1 (1.000000)
    net charge:   0.00000000 [e]

Amount of molecules per component :
-------------------------------------------------------------------------------
Component 0 (CO2)
    molecules:      2.500000e+02 molecules  (2.500000e+02 +/- 0.000000e+00)
    number density: 1.442341e-02 molec./A^3 (1.509639e-02 +/- 2.810922e-04)
    density:        1.053799e+03 kg/m^3     (1.102968e+03 +/- 2.053708e+01)

Average pressure tensor: 
-------------------------------------------------------------------------------
 1.7491e+02  2.2559e+01 -2.8533e+01 +/- 9.7383e+01 6.0774e+01 3.3006e+01 [bar]
 2.2559e+01  1.7224e+02  3.1065e+00 +/- 6.0774e+01 5.9917e+01 4.1753e+01 [bar]
-2.8533e+01  3.1065e+00  2.0960e+02 +/- 3.3006e+01 4.1753e+01 7.3103e+01 [bar]
Ideal-gas pressure:   5.210708e+02 +/ 9.702250e+00 [bar]
Excess pressure:     -3.354882e+02 +/ 2.420527e+01 [bar]
Pressure:             1.855826e+02 +/ 1.553294e+01 [bar]

Total potential energy/kʙ  -3.792572e+05 (-4.000049e+05 +/- 9.470745e+03) [K]
-------------------------------------------------------------------------------
ExternalField-molecule
    Van der Waals/kʙ        0.000000e+00 ( 0.000000e+00 +/- 0.000000e+00) [K]
Framework-molecule
    Van der Waals/kʙ        0.000000e+00 ( 0.000000e+00 +/- 0.000000e+00) [K]
    Van der Waals (Tail)/kʙ 0.000000e+00 ( 0.000000e+00 +/- 0.000000e+00) [K]
    Coulombic Real/kʙ       0.000000e+00 ( 0.000000e+00 +/- 0.000000e+00) [K]
    Coulombic Fourier/kʙ    0.000000e+00 ( 0.000000e+00 +/- 0.000000e+00) [K]
Molecule-molecule
    Van der Waals/kʙ       -2.682578e+05 (-2.832531e+05 +/- 5.634805e+03) [K]
    Van der Waals (Tail)/kʙ-1.156955e+04 (-1.210974e+04 +/- 2.217002e+02) [K]
    Coulombic Real/kʙ      -7.990320e+04 (-8.433366e+04 +/- 3.299098e+03) [K]
    Coulombic Fourier/kʙ   -1.952660e+04 (-2.030843e+04 +/- 5.743114e+02) [K]
    Molecule Intra/kʙ       0.000000e+00 ( 0.000000e+00 +/- 0.000000e+00) [K]

Current cycle: 4900 out of 5000
===============================================================================

Box:      25.53768   0.00000   0.00000  Average:  25.49603   0.00000   0.00000
           0.00000  25.53768   0.00000             0.00000  25.49603   0.00000
           0.00000   0.00000  25.53768             0.00000   0.00000  25.49603
Lengths:  25.53768  25.53768  25.53768  Average:  25.49603  25.49603  25.49603
Angles:   90.00000  90.00000  90.00000  Average:  90.00000  90.00000  90.00000
Rectangular boundary conditions

net charge:   0.00000000

component 0 (CO2) lambda:  0 occupancy:  1 (1.000000)
    net charge:   0.00000000 [e]

Amount of molecules per component :
-------------------------------------------------------------------------------
Component 0 (CO2)
    molecules:      2.500000e+02 molecules  (2.500000e+02 +/- 0.000000e+00)
    number density: 1.501051e-02 molec./A^3 (1.508904e-02 +/- 2.800982e-04)
    density:        1.096694e+03 kg/m^3     (1.102431e+03 +/- 2.046445e+01)

Average pressure tensor: 
-------------------------------------------------------------------------------
 1.7486e+02  2.7728e+01 -2.7357e+01 +/- 9.4196e+01 7.0009e+01 3.4030e+01 [bar]
 2.7728e+01  1.7144e+02  4.1175e+00 +/- 7.0009e+01 5.7879e+01 4.2285e+01 [bar]
-2.7357e+01  4.1175e+00  2.0771e+02 +/- 3.4030e+01 4.2285e+01 7.4196e+01 [bar]
Ideal-gas pressure:   5.208171e+02 +/ 9.667941e+00 [bar]
Excess pressure:     -3.361463e+02 +/ 2.012115e+01 [bar]
Pressure:             1.846707e+02 +/ 1.152682e+01 [bar]

Total potential energy/kʙ  -4.049679e+05 (-3.998890e+05 +/- 9.180468e+03) [K]
-------------------------------------------------------------------------------
ExternalField-molecule
    Van der Waals/kʙ        0.000000e+00 ( 0.000000e+00 +/- 0.000000e+00) [K]
Framework-molecule
    Van der Waals/kʙ        0.000000e+00 ( 0.000000e+00 +/- 0.000000e+00) [K]
    Van der Waals (Tail)/kʙ 0.000000e+00 ( 0.000000e+00 +/- 0.000000e+00) [K]
    Coulombic Real/kʙ       0.000000e+00 ( 0.000000e+00 +/- 0.000000e+00) [K]
    Coulombic Fourier/kʙ    0.000000e+00 ( 0.000000e+00 +/- 0.000000e+00) [K]
Molecule-molecule
    Van der Waals/kʙ       -2.815780e+05 (-2.831288e+05 +/- 5.556815e+03) [K]
    Van der Waals (Tail)/kʙ-1.204049e+04 (-1.210416e+04 +/- 2.205677e+02) [K]
    Coulombic Real/kʙ      -9.073760e+04 (-8.436339e+04 +/- 3.138439e+03) [K]
    Coulombic Fourier/kʙ   -2.061181e+04 (-2.029267e+04 +/- 5.766820e+02) [K]
    Molecule Intra/kʙ       0.000000e+00 ( 0.000000e+00 +/- 0.000000e+00) [K]


Energy statistics             |  Energy [K]   | Recomputed [K]|  Drift [K]    |
===============================================================================
Total potential energy/kʙ     | -3.913542e+05 | -3.913542e+05 | -1.093871e-11 |
    external field VDW/kʙ     |  0.000000e+00 |  0.000000e+00 |  0.000000e+00 |
    external field Real/kʙ    |  0.000000e+00 |  0.000000e+00 |  0.000000e+00 |
    framework-molecule VDW/kʙ |  0.000000e+00 |  0.000000e+00 |  0.000000e+00 |
    framework-molecule Real/kʙ|  0.000000e+00 |  0.000000e+00 |  0.000000e+00 |
    molecule-molecule VDW/kʙ  | -2.763309e+05 | -2.763309e+05 | -7.700854e-10 |
    molecule-molecule Real/kʙ | -8.343696e+04 | -8.343696e+04 |  8.050893e-10 |
    Van der Waals (Tail)/kʙ   | -1.195013e+04 | -1.195013e+04 |  0.000000e+00 |
    Ewald Fourier/kʙ          |  1.669087e+04 |  1.669087e+04 | -4.594260e-11 |
    Ewald self/kʙ             | -5.557308e+06 | -5.557308e+06 |  0.000000e+00 |
    Ewald exclusion/kʙ        |  5.520981e+06 |  5.520981e+06 |  0.000000e+00 |
    intra VDW/kʙ              |  0.000000e+00 |  0.000000e+00 |  0.000000e+00 |
    intra Coulombic/kʙ        |  0.000000e+00 |  0.000000e+00 |  0.000000e+00 |
    polarization/kʙ           |  0.000000e+00 |  0.000000e+00 |  0.000000e+00 |
    dU/dlambda VDW/kʙ         |  0.000000e+00 |  0.000000e+00 |  0.000000e+00 |
    dU/dlambda Real/kʙ        |  0.000000e+00 |  0.000000e+00 |  0.000000e+00 |
    dU/dlambda Ewald/kʙ       |  0.000000e+00 |  0.000000e+00 |  0.000000e+00 |
-------------------------------------------------------------------------------


Monte-Carlo moves statistics
===============================================================================

    Volume change        all:                8275
    Volume change        total:              8275
    Volume change        constructed:        8275
    Volume change        accepted:           3969
    Volume change        fraction:       0.479637
    Volume change        max-change:     0.025000

Component 0 [CO2]
    Reinsertion (CBMC)   all:              413949
    Reinsertion (CBMC)   total:            413949
    Reinsertion (CBMC)   constructed:      351378
    Reinsertion (CBMC)   accepted:           3176
    Reinsertion (CBMC)   fraction:       0.007672
    Reinsertion (CBMC)   max-change:     0.000000

    Translation          all:              413157
    Translation          total:            137465     138224     137468
    Translation          constructed:      137465     138224     137468
    Translation          accepted:          80573      64629      60480
    Translation          fraction:       0.586135   0.467567   0.439957
    Translation          max-change:     0.489510   0.694764   0.758621

    Rotation             all:              414619
    Rotation             total:            138389     137896     138334
    Rotation             constructed:      138384     137878     138334
    Rotation             accepted:          59034      54208      81173
    Rotation             fraction:       0.426580   0.393108   0.586790
    Rotation             max-change:     0.838710   0.942857   0.500000



Production run counting of the MC moves summed over systems and components
===============================================================================

Volume change                          8275 (0.6620 [%])
Reinsertion (CBMC)                   413949 (33.1159 [%])
Translation                          413157 (33.0526 [%])
Rotation                             414619 (33.1695 [%])

Production count MC-steps:          1250000 [-]
               All summed:          1250000 [-]
               difference:                0 [-]


Production run CPU timings of the MC moves
===============================================================================

Component 0 CO2

Rotation                             39.956758 [s]
    Ewald                            17.533891 [s]
    ExternalField-Molecule            0.013173 [s]
    Framework-Molecule                0.017473 [s]
    Molecule-Molecule                21.293576 [s]
    Overhead                          1.098645 [s]

Reinsertion (CBMC)                  154.605048 [s]
    Ewald                            15.106374 [s]
    NonEwald                        139.229179 [s]
    Overhead                          0.269495 [s]

Translation                          39.881381 [s]
    Ewald                            17.453559 [s]
    ExternalField-Molecule            0.013645 [s]
    Framework-Molecule                0.021524 [s]
    Molecule-Molecule                21.258814 [s]
    Overhead                          1.133839 [s]



Volume change                         49.068123 [s]
    Ewald                             17.913085 [s]
    NonEwald                          29.065762 [s]
    Tail                               1.777610 [s]

Property sampling                     0.782163 [s]
Energy/pressure sampling:             5.885123 [s]


Production run CPU timings of the MC moves summed over systems and components
===============================================================================


Translation                          39.881381 [s]
    Ewald                            17.453559 [s]
    ExternalField-Molecule            0.013645 [s]
    Framework-Molecule                0.021524 [s]
    Molecule-Molecule                21.258814 [s]
    Overhead                          1.133839 [s]

Rotation                             39.956758 [s]
    Ewald                            17.533891 [s]
    ExternalField-Molecule            0.013173 [s]
    Framework-Molecule                0.017473 [s]
    Molecule-Molecule                21.293576 [s]
    Overhead                          1.098645 [s]

Volume change                        49.068123 [s]
    Ewald                            17.913085 [s]
    NonEwald                         29.065762 [s]
    Tail                              1.777610 [s]
    Overhead                          0.311666 [s]

Reinsertion (CBMC)                  154.605048 [s]
    Ewald                            15.106374 [s]
    NonEwald                        139.229179 [s]
    Overhead                          0.269495 [s]

Property sampling:                    0.782163 [s]
Energy/pressure sampling:             5.885123 [s]

Production simulation time:         290.852267 [s]
                All summed:         290.178596 [s]
                  Overhead:           0.673671 [s]


Initalization simulation time:       50.817732 [s]
Equilibration simulation time:        0.000000 [s]
Production simulation time:         290.852267 [s]
Total simulation time:              341.669999 [s]


Energy averages and statistics:
===============================================================================

Framework-molecule energy:
-------------------------------------------------------------------------------



Framework-molecule energy contributions per energy type:
-------------------------------------------------------------------------------



Inter-molecular energy:
-------------------------------------------------------------------------------

    Inter-molecular energy/kʙ 0-0 [CO2-CO2]:
    ---------------------------------------------------------------------------
        Block[  0] -4.059197e+05
        Block[  1] -3.947260e+05
        Block[  2] -4.057405e+05
        Block[  3] -4.028345e+05
        Block[  4] -3.902752e+05
        -----------------------------------------------------------------------
        Average  -3.998992e+05 +/-  8.742572e+03 [K]



Inter-molecular energy contributions per energy type:
-------------------------------------------------------------------------------

    Van der Waals energy/kʙ 0-0 [CO2-CO2]:
    ---------------------------------------------------------------------------
        Block[  0] -2.857704e+05
        Block[  1] -2.810446e+05
        Block[  2] -2.867500e+05
        Block[  3] -2.854154e+05
        Block[  4] -2.766516e+05
        -----------------------------------------------------------------------
        Average  -2.831264e+05 +/-  5.253074e+03 [K]

    VDW Tail-Correction energy/kʙ 0-0 [CO2-CO2]:
    ---------------------------------------------------------------------------
        Block[  0] -1.223313e+04
        Block[  1] -1.202293e+04
        Block[  2] -1.224459e+04
        Block[  3] -1.217140e+04
        Block[  4] -1.183576e+04
        -----------------------------------------------------------------------
        Average  -1.210156e+04 +/-  2.145632e+02 [K]

    Coulomb Real energy/kʙ 0-0 [CO2-CO2]:
    ---------------------------------------------------------------------------
        Block[  0] -8.728722e+04
        Block[  1] -8.165730e+04
        Block[  2] -8.614280e+04
        Block[  3] -8.467360e+04
        Block[  4] -8.212545e+04
        -----------------------------------------------------------------------
        Average  -8.437727e+04 +/-  3.049917e+03 [K]

    Coulomb Fourier energy/kʙ 0-0 [CO2-CO2]:
    ---------------------------------------------------------------------------
        Block[  0] -2.062898e+04
        Block[  1] -2.000109e+04
        Block[  2] -2.060311e+04
        Block[  3] -2.057409e+04
        Block[  4] -1.966239e+04
        -----------------------------------------------------------------------
        Average  -2.029393e+04 +/-  5.450228e+02 [K]


Total energy/kʙ
-------------------------------------------------------------------------------
    Block[  0] -4.059197e+05
    Block[  1] -3.947260e+05
    Block[  2] -4.057405e+05
    Block[  3] -4.028345e+05
    Block[  4] -3.902752e+05
    ---------------------------------------------------------------------------
    Average  -3.998992e+05 +/-  8.742572e+03 [K]

Pressure averages and statistics:
===============================================================================

Average pressure tensor: 
-------------------------------------------------------------------------------
 1.7317e+02  2.5152e+01 -2.3067e+01 +/- 8.9593e+01 5.9738e+01 4.0389e+01 [bar]
 2.5152e+01  1.6828e+02  4.0412e+00 +/- 5.9738e+01 5.4788e+01 4.1229e+01 [bar]
-2.3067e+01  4.0412e+00  2.0401e+02 +/- 4.0389e+01 4.1229e+01 7.8235e+01 [bar]

    Block[  0]  5.263623e+07
    Block[  1]  5.174109e+07
    Block[  2]  5.268906e+07
    Block[  3]  5.238015e+07
    Block[  4]  5.091616e+07
    ---------------------------------------------------------------------------
    Ideal gas pressure   5.207254e+07 +/-  5.594158e-02 [Pa]
                         5.207254e+02 +/-  9.289325e+00 [bar]


    Block[  0] -3.403199e+07
    Block[  1] -3.362767e+07
    Block[  2] -3.475709e+07
    Block[  3] -3.459943e+07
    Block[  4] -3.243724e+07
    ---------------------------------------------------------------------------
    Excess pressure  -3.389068e+07 +/-  1.153730e+06 [Pa]
                     -3.389068e+02 +/-  1.153730e+01 [bar]


    Block[  0]  1.860423e+07
    Block[  1]  1.811342e+07
    Block[  2]  1.793197e+07
    Block[  3]  1.778073e+07
    Block[  4]  1.847892e+07
    ---------------------------------------------------------------------------
    Pressure average   1.818185e+07 +/-  4.365830e+05 [Pa]
                       1.818185e+02 +/-  4.365830e+00 [bar]


Enthalpy of adsorption
===============================================================================

No fluctuating components present.


Densities
===============================================================================

Component 0 (CO2)
    Block[  0] 250
    Block[  1] 250
    Block[  2] 250
    Block[  3] 250
    Block[  4] 250
    -----------------------------------------------------------------------
    Density average   2.500000e+02 +/-  0.000000e+00 [molecules]
    Density average   1.508638e-02 +/-  2.691290e-04 [molec/A^3]
    Density average   1.102237e+03 +/-  1.966302e+01 [kg.m⁻³]

