Compiler and run-time data
===============================================================================
RASPA 3.0.4

Random seed: 2974192839

Compiled as a 64-bits application
Compiler: gcc Ubuntu Clang 18.1.3 (1ubuntu1)
Compile Date = Mar 15 2025, Compile Time = 19:39:45

2025-06-02 13:48:15.165095
Simulation started on Mon, Jun 02
The start time was 13:48:00

Hostname:    c062
OS type:     Linux on x86_64
OS release:  6.8.0-58-generic
OS version:  #60-Ubuntu SMP PREEMPT_DYNAMIC Fri Mar 14 18:29:48 UTC 2025


Mutual consistent basic set of units:
===============================================================================

Unit of temperature: 1 [K]
Unit of length:      1e-10 [m]
Unit of time:        1e-12 [s]
Unit of mass:        1.6605402e-27 [kg]
Unit of charge:      1.60217733e-19 [C/particle]


Boltzmann constant (internal units):          0.8314464919307584 [-]
represents conversion from energy (internal units) to temperature (in Kelvin)

Derived units and their conversion factors:
===============================================================================

Unit of energy:                           1.6605402000000002e-23 [J]
Unit of energy:                           10.000008872307538 [J.mol⁻¹]
Unit of velocity:                         100 [m.s⁻¹]
Unit of force:                            1.6605402000000002e-13 [N]
Unit of diffusion:                        1.0000000000000002e-08 [m².s⁻¹]
Unit of acceleration:                     1.0000000000000002e-08 [m².s⁻¹]
Unit of torque:                           1.6605402000000002e-23 [N.m]
Unit of pressure:                         16605402 [Pa]
Unit of volume:                           1e-30 [m³]
Unit of density:                          1660.5402 [kg.m⁻³]
Unit of dynamic viscosity:                1.6605401999999997e-05 [N.s.m⁻²]
Unit of enthalpy:                         1.6605402000000002e-23 [J]
Unit of polarizability:                   1.5458657349975198e-35 [-]
Unit of Coulomb potential:                167101.08000665612 [K]
Unit of dielectric constant:              1.5458657349975193e-05 [s².C².kg⁻¹.m⁻³]
Unit of dipole moment:                    1.60217733e-29 [C.m]
Unit of Debye:                            4.803206799099162 [C.m]
Unit of electric potential:               0.00010364272224473431 [V]
Unit of electric field:                   1036427.222447343 [V.m⁻¹]
Unit of isothermal compressibility:       6.02213665167516e-08 [Pa⁻¹]
Unit of heat capacity:                    10.000008872307538 [J.mol⁻¹.K⁻¹]
Unit of volumetric expansion coefficient: 1 [K⁻¹]


Internal conversion factors:
===============================================================================

Energy (internal units) to Kelvin:      1.202724284692786 [-]
Kelvin to energy (internal units):      0.8314457542157567 [-]


System definitions
===============================================================================

Temperature:          250 [K]
Beta:                 0.0048108928702210625 [-]
Pressure:             2e+07 [Pa]
Helium void fraction: 1 [-]

Box:      30.00000   0.00000   0.00000
           0.00000  30.00000   0.00000
           0.00000   0.00000  30.00000
Lengths:  30.00000  30.00000  30.00000
Angles:   90.00000  90.00000  90.00000
Rectangular boundary conditions



Property measurement settings
===============================================================================




Pseudo-atoms
===============================================================================

  0 - C_co2    framework-atom: false
  1 - O_co2    framework-atom: false

  0 - C_co2    mass: 12.00000, charge:  0.70000
  1 - O_co2    mass: 15.99940, charge: -0.35000

  0 - C_co2    polarizability:  0.00000
  1 - O_co2    polarizability:  0.00000

  0 - J. J. Potoff et al., AIChE J. 2001, 47, 1676–1682.
  1 - J. J. Potoff et al., AIChE J. 2001, 47, 1676–1682.

Force field status
===============================================================================

Cutoff Framework-Molecule VDW:  10.00000 [Å]
Cutoff Molecule-Molecule VDW:   10.00000 [Å]
Cutoff Coulomb:                 10.00000 [Å]

Overlap-criteria VDW:           1.000000e+05 [K]

C_co2    - C_co2    Lennard-Jones p₀/kʙ:  27.00000 [K], p₁:  2.80000 [Å]
                                  shift:   0.00000 [K], tailcorrections: true
C_co2    - O_co2    Lennard-Jones p₀/kʙ:  46.18441 [K], p₁:  2.92500 [Å]
                                  shift:   0.00000 [K], tailcorrections: true
O_co2    - O_co2    Lennard-Jones p₀/kʙ:  79.00000 [K], p₁:  3.05000 [Å]
                                  shift:   0.00000 [K], tailcorrections: true

Ewald precision: 1e-06
Ewald alpha: 0.32079885109097883
Ewald k-vectors: 10 10 10


Component definitions
===============================================================================

Component 0 [CO2]

    Type: Adsorbate

    Critical temperature:  304.1282 [K]
    Critical pressure:     7377300 [Pa]
    Acentric factor:       0.22394 [-]

    Mol-fraction:                 1 [-]
    Swappable:                   false

    Mass:                         43.9988 [-]
    Bulk fluid density:           0 [-]
    Compressibility:              0 [-]
    Excess molecules:             0 [-]

    Number Of Atoms:    3
    CBMC starting bead: 0
      0: O_co2  position  0.00000 -0.00000  1.16000, charge -0.35000
      1: C_co2  position  0.00000 -0.00000  0.00000, charge  0.70000
      2: O_co2  position  0.00000 -0.00000 -1.16000, charge -0.35000
    Diagonalized inertia-vector:      43.05758528 43.05758528 0.00000000
    Translational degrees of freedom: 3
    Rotational degrees of freedom:    2
    Shape of the molecule is: 'Linear'
    Net-charge:        0.00000000 [e]

    Move probabilities:
    Translation:                   0.331126 [-]
    Random translation:            0.000000 [-]
    Rotation:                      0.331126 [-]
    Random rotation:               0.000000 [-]
    Volume change:                 0.006623 [-]
    Reinsertion (CBMC):            0.331126 [-]
    Identity change (CBMC):        0.000000 [-]
    Swap:                          0.000000 [-]
    Swap (CBMC):                   0.000000 [-]
    Swap (CFCMC):                  0.000000 [-]
    Swap (CB/CFCMC):               0.000000 [-]
    Gibbs volume:                  0.000000 [-]
    Gibbs swap (CBMC):             0.000000 [-]
    Gibbs swap (CFCMC):            0.000000 [-]
    Widom:                         0.000000 [-]
    Widom (CFCMC):                 0.000000 [-]
    Widom (CB/CFCMC):              0.000000 [-]
    Parallel tempering:            0.000000 [-]
    Hybrid MC:                     0.000000 [-]

    number of blocking-pockets: 0

    number of bonds: 0





Number of pseudo-atoms
===============================================================================

Component   0 (CO2)
-------------------------------------------------------------------------------
    index   0 (C_co2): 250 atoms
    index   1 (O_co2): 500 atoms

Total number of pseudo-atoms:
-------------------------------------------------------------------------------
    index   0 (C_co2): 250 atoms
    index   1 (O_co2): 500 atoms




Energy status Recomputed from scratch
===============================================================================

Total potential energy/kʙ       -5.911953e+04 [K]
    external field VDW/kʙ        0.000000e+00 [K]
    external field Real/kʙ       0.000000e+00 [K]
    framework-molecule VDW/kʙ    0.000000e+00 [K]
    framework-molecule Real/kʙ   0.000000e+00 [K]
    molecule-molecule VDW/kʙ    -2.933397e+04 [K]
    molecule-molecule Real/kʙ   -1.727783e+04 [K]
    Van der Waals (Tail)/kʙ     -7.427197e+03 [K]
    Ewald Fourier/kʙ             3.124661e+04 [K]
    Ewald self/kʙ               -5.557308e+06 [K]
    Ewald exclusion/kʙ           5.520981e+06 [K]
    intra VDW/kʙ                 0.000000e+00 [K]
    intra Coulombic/kʙ           0.000000e+00 [K]
    polarization/kʙ              0.000000e+00 [K]
    dU/dlambda VDW/kʙ            0.000000e+00 [K]
    dU/dlambda Real/kʙ           0.000000e+00 [K]
    dU/dlambda Ewald/kʙ          0.000000e+00 [K]





Initialization: Current cycle: 0 out of 1000
===============================================================================

Box:      30.00000   0.00000   0.00000
           0.00000  30.00000   0.00000
           0.00000   0.00000  30.00000
Lengths:  30.00000  30.00000  30.00000
Angles:   90.00000  90.00000  90.00000
Rectangular boundary conditions

net charge:   0.00000000

component   0 (CO2) lambda:  0 occupancy:  1 (1.000000)
    net charge:   0.00000000 [e]

Amount of molecules per component :
-------------------------------------------------------------------------------
Component 0 (CO2)
    molecules:         2.500000e+02 molecules
    number density:    9.259259e-03 molec/A^3
    density:           6.764973e+02 kg/m^3

Total potential energy/kʙ       -1.619845e+05 [K]
-------------------------------------------------------------------------------
    external field VDW/kʙ        0.000000e+00 [K]
    external field Real/kʙ       0.000000e+00 [K]
    framework-molecule VDW/kʙ    0.000000e+00 [K]
    framework-molecule Real/kʙ   0.000000e+00 [K]
    molecule-molecule VDW/kʙ    -1.217908e+05 [K]
    molecule-molecule Real/kʙ   -2.446566e+04 [K]
    Van der Waals (Tail)/kʙ     -7.427197e+03 [K]
    Ewald Fourier/kʙ             2.802630e+04 [K]
    Ewald self/kʙ               -5.557308e+06 [K]
    Ewald exclusion/kʙ           5.520981e+06 [K]
    intra VDW/kʙ                 0.000000e+00 [K]
    intra Coulombic/kʙ           0.000000e+00 [K]
    polarization/kʙ              0.000000e+00 [K]
    dU/dlambda VDW/kʙ            0.000000e+00 [K]
    dU/dlambda Real/kʙ           0.000000e+00 [K]
    dU/dlambda Ewald/kʙ          0.000000e+00 [K]


Initialization: Current cycle: 100 out of 1000
===============================================================================

Box:      27.36331   0.00000   0.00000
           0.00000  27.36331   0.00000
           0.00000   0.00000  27.36331
Lengths:  27.36331  27.36331  27.36331
Angles:   90.00000  90.00000  90.00000
Rectangular boundary conditions

net charge:   0.00000000

component   0 (CO2) lambda:  0 occupancy:  1 (1.000000)
    net charge:   0.00000000 [e]

Amount of molecules per component :
-------------------------------------------------------------------------------
Component 0 (CO2)
    molecules:         2.500000e+02 molecules
    number density:    1.220209e-02 molec/A^3
    density:           8.915058e+02 kg/m^3

Total potential energy/kʙ       -3.109353e+05 [K]
-------------------------------------------------------------------------------
    external field VDW/kʙ        0.000000e+00 [K]
    external field Real/kʙ       0.000000e+00 [K]
    framework-molecule VDW/kʙ    0.000000e+00 [K]
    framework-molecule Real/kʙ   0.000000e+00 [K]
    molecule-molecule VDW/kʙ    -2.329018e+05 [K]
    molecule-molecule Real/kʙ   -5.418398e+04 [K]
    Van der Waals (Tail)/kʙ     -9.787754e+03 [K]
    Ewald Fourier/kʙ             2.226537e+04 [K]
    Ewald self/kʙ               -5.557308e+06 [K]
    Ewald exclusion/kʙ           5.520981e+06 [K]
    intra VDW/kʙ                 0.000000e+00 [K]
    intra Coulombic/kʙ           0.000000e+00 [K]
    polarization/kʙ              0.000000e+00 [K]
    dU/dlambda VDW/kʙ            0.000000e+00 [K]
    dU/dlambda Real/kʙ           0.000000e+00 [K]
    dU/dlambda Ewald/kʙ          0.000000e+00 [K]


Initialization: Current cycle: 200 out of 1000
===============================================================================

Box:      26.54276   0.00000   0.00000
           0.00000  26.54276   0.00000
           0.00000   0.00000  26.54276
Lengths:  26.54276  26.54276  26.54276
Angles:   90.00000  90.00000  90.00000
Rectangular boundary conditions

net charge:   0.00000000

component   0 (CO2) lambda:  0 occupancy:  1 (1.000000)
    net charge:   0.00000000 [e]

Amount of molecules per component :
-------------------------------------------------------------------------------
Component 0 (CO2)
    molecules:         2.500000e+02 molecules
    number density:    1.336908e-02 molec/A^3
    density:           9.767679e+02 kg/m^3

Total potential energy/kʙ       -3.477018e+05 [K]
-------------------------------------------------------------------------------
    external field VDW/kʙ        0.000000e+00 [K]
    external field Real/kʙ       0.000000e+00 [K]
    framework-molecule VDW/kʙ    0.000000e+00 [K]
    framework-molecule Real/kʙ   0.000000e+00 [K]
    molecule-molecule VDW/kʙ    -2.485685e+05 [K]
    molecule-molecule Real/kʙ   -7.127032e+04 [K]
    Van der Waals (Tail)/kʙ     -1.072384e+04 [K]
    Ewald Fourier/kʙ             1.918793e+04 [K]
    Ewald self/kʙ               -5.557308e+06 [K]
    Ewald exclusion/kʙ           5.520981e+06 [K]
    intra VDW/kʙ                 0.000000e+00 [K]
    intra Coulombic/kʙ           0.000000e+00 [K]
    polarization/kʙ              0.000000e+00 [K]
    dU/dlambda VDW/kʙ            0.000000e+00 [K]
    dU/dlambda Real/kʙ           0.000000e+00 [K]
    dU/dlambda Ewald/kʙ          0.000000e+00 [K]


Initialization: Current cycle: 300 out of 1000
===============================================================================

Box:      25.95430   0.00000   0.00000
           0.00000  25.95430   0.00000
           0.00000   0.00000  25.95430
Lengths:  25.95430  25.95430  25.95430
Angles:   90.00000  90.00000  90.00000
Rectangular boundary conditions

net charge:   0.00000000

component   0 (CO2) lambda:  0 occupancy:  1 (1.000000)
    net charge:   0.00000000 [e]

Amount of molecules per component :
-------------------------------------------------------------------------------
Component 0 (CO2)
    molecules:         2.500000e+02 molecules
    number density:    1.429920e-02 molec/A^3
    density:           1.044724e+03 kg/m^3

Total potential energy/kʙ       -3.644644e+05 [K]
-------------------------------------------------------------------------------
    external field VDW/kʙ        0.000000e+00 [K]
    external field Real/kʙ       0.000000e+00 [K]
    framework-molecule VDW/kʙ    0.000000e+00 [K]
    framework-molecule Real/kʙ   0.000000e+00 [K]
    molecule-molecule VDW/kʙ    -2.578775e+05 [K]
    molecule-molecule Real/kʙ   -7.724056e+04 [K]
    Van der Waals (Tail)/kʙ     -1.146993e+04 [K]
    Ewald Fourier/kʙ             1.845071e+04 [K]
    Ewald self/kʙ               -5.557308e+06 [K]
    Ewald exclusion/kʙ           5.520981e+06 [K]
    intra VDW/kʙ                 0.000000e+00 [K]
    intra Coulombic/kʙ           0.000000e+00 [K]
    polarization/kʙ              0.000000e+00 [K]
    dU/dlambda VDW/kʙ            0.000000e+00 [K]
    dU/dlambda Real/kʙ           0.000000e+00 [K]
    dU/dlambda Ewald/kʙ          0.000000e+00 [K]


Initialization: Current cycle: 400 out of 1000
===============================================================================

Box:      25.72124   0.00000   0.00000
           0.00000  25.72124   0.00000
           0.00000   0.00000  25.72124
Lengths:  25.72124  25.72124  25.72124
Angles:   90.00000  90.00000  90.00000
Rectangular boundary conditions

net charge:   0.00000000

component   0 (CO2) lambda:  0 occupancy:  1 (1.000000)
    net charge:   0.00000000 [e]

Amount of molecules per component :
-------------------------------------------------------------------------------
Component 0 (CO2)
    molecules:         2.500000e+02 molecules
    number density:    1.469144e-02 molec/A^3
    density:           1.073382e+03 kg/m^3

Total potential energy/kʙ       -3.878385e+05 [K]
-------------------------------------------------------------------------------
    external field VDW/kʙ        0.000000e+00 [K]
    external field Real/kʙ       0.000000e+00 [K]
    framework-molecule VDW/kʙ    0.000000e+00 [K]
    framework-molecule Real/kʙ   0.000000e+00 [K]
    molecule-molecule VDW/kʙ    -2.727751e+05 [K]
    molecule-molecule Real/kʙ   -8.381900e+04 [K]
    Van der Waals (Tail)/kʙ     -1.178455e+04 [K]
    Ewald Fourier/kʙ             1.686733e+04 [K]
    Ewald self/kʙ               -5.557308e+06 [K]
    Ewald exclusion/kʙ           5.520981e+06 [K]
    intra VDW/kʙ                 0.000000e+00 [K]
    intra Coulombic/kʙ           0.000000e+00 [K]
    polarization/kʙ              0.000000e+00 [K]
    dU/dlambda VDW/kʙ            0.000000e+00 [K]
    dU/dlambda Real/kʙ           0.000000e+00 [K]
    dU/dlambda Ewald/kʙ          0.000000e+00 [K]


Initialization: Current cycle: 500 out of 1000
===============================================================================

Box:      25.72166   0.00000   0.00000
           0.00000  25.72166   0.00000
           0.00000   0.00000  25.72166
Lengths:  25.72166  25.72166  25.72166
Angles:   90.00000  90.00000  90.00000
Rectangular boundary conditions

net charge:   0.00000000

component   0 (CO2) lambda:  0 occupancy:  1 (1.000000)
    net charge:   0.00000000 [e]

Amount of molecules per component :
-------------------------------------------------------------------------------
Component 0 (CO2)
    molecules:         2.500000e+02 molecules
    number density:    1.469071e-02 molec/A^3
    density:           1.073329e+03 kg/m^3

Total potential energy/kʙ       -3.898552e+05 [K]
-------------------------------------------------------------------------------
    external field VDW/kʙ        0.000000e+00 [K]
    external field Real/kʙ       0.000000e+00 [K]
    framework-molecule VDW/kʙ    0.000000e+00 [K]
    framework-molecule Real/kʙ   0.000000e+00 [K]
    molecule-molecule VDW/kʙ    -2.741181e+05 [K]
    molecule-molecule Real/kʙ   -8.500437e+04 [K]
    Van der Waals (Tail)/kʙ     -1.178397e+04 [K]
    Ewald Fourier/kʙ             1.737836e+04 [K]
    Ewald self/kʙ               -5.557308e+06 [K]
    Ewald exclusion/kʙ           5.520981e+06 [K]
    intra VDW/kʙ                 0.000000e+00 [K]
    intra Coulombic/kʙ           0.000000e+00 [K]
    polarization/kʙ              0.000000e+00 [K]
    dU/dlambda VDW/kʙ            0.000000e+00 [K]
    dU/dlambda Real/kʙ           0.000000e+00 [K]
    dU/dlambda Ewald/kʙ          0.000000e+00 [K]


Initialization: Current cycle: 600 out of 1000
===============================================================================

Box:      25.83777   0.00000   0.00000
           0.00000  25.83777   0.00000
           0.00000   0.00000  25.83777
Lengths:  25.83777  25.83777  25.83777
Angles:   90.00000  90.00000  90.00000
Rectangular boundary conditions

net charge:   0.00000000

component   0 (CO2) lambda:  0 occupancy:  1 (1.000000)
    net charge:   0.00000000 [e]

Amount of molecules per component :
-------------------------------------------------------------------------------
Component 0 (CO2)
    molecules:         2.500000e+02 molecules
    number density:    1.449355e-02 molec/A^3
    density:           1.058923e+03 kg/m^3

Total potential energy/kʙ       -3.797235e+05 [K]
-------------------------------------------------------------------------------
    external field VDW/kʙ        0.000000e+00 [K]
    external field Real/kʙ       0.000000e+00 [K]
    framework-molecule VDW/kʙ    0.000000e+00 [K]
    framework-molecule Real/kʙ   0.000000e+00 [K]
    molecule-molecule VDW/kʙ    -2.677942e+05 [K]
    molecule-molecule Real/kʙ   -8.073257e+04 [K]
    Van der Waals (Tail)/kʙ     -1.162581e+04 [K]
    Ewald Fourier/kʙ             1.675618e+04 [K]
    Ewald self/kʙ               -5.557308e+06 [K]
    Ewald exclusion/kʙ           5.520981e+06 [K]
    intra VDW/kʙ                 0.000000e+00 [K]
    intra Coulombic/kʙ           0.000000e+00 [K]
    polarization/kʙ              0.000000e+00 [K]
    dU/dlambda VDW/kʙ            0.000000e+00 [K]
    dU/dlambda Real/kʙ           0.000000e+00 [K]
    dU/dlambda Ewald/kʙ          0.000000e+00 [K]


Initialization: Current cycle: 700 out of 1000
===============================================================================

Box:      25.60427   0.00000   0.00000
           0.00000  25.60427   0.00000
           0.00000   0.00000  25.60427
Lengths:  25.60427  25.60427  25.60427
Angles:   90.00000  90.00000  90.00000
Rectangular boundary conditions

net charge:   0.00000000

component   0 (CO2) lambda:  0 occupancy:  1 (1.000000)
    net charge:   0.00000000 [e]

Amount of molecules per component :
-------------------------------------------------------------------------------
Component 0 (CO2)
    molecules:         2.500000e+02 molecules
    number density:    1.489370e-02 molec/A^3
    density:           1.088159e+03 kg/m^3

Total potential energy/kʙ       -3.993183e+05 [K]
-------------------------------------------------------------------------------
    external field VDW/kʙ        0.000000e+00 [K]
    external field Real/kʙ       0.000000e+00 [K]
    framework-molecule VDW/kʙ    0.000000e+00 [K]
    framework-molecule Real/kʙ   0.000000e+00 [K]
    molecule-molecule VDW/kʙ    -2.768781e+05 [K]
    molecule-molecule Real/kʙ   -8.979631e+04 [K]
    Van der Waals (Tail)/kʙ     -1.194679e+04 [K]
    Ewald Fourier/kʙ             1.563000e+04 [K]
    Ewald self/kʙ               -5.557308e+06 [K]
    Ewald exclusion/kʙ           5.520981e+06 [K]
    intra VDW/kʙ                 0.000000e+00 [K]
    intra Coulombic/kʙ           0.000000e+00 [K]
    polarization/kʙ              0.000000e+00 [K]
    dU/dlambda VDW/kʙ            0.000000e+00 [K]
    dU/dlambda Real/kʙ           0.000000e+00 [K]
    dU/dlambda Ewald/kʙ          0.000000e+00 [K]


Initialization: Current cycle: 800 out of 1000
===============================================================================

Box:      25.75060   0.00000   0.00000
           0.00000  25.75060   0.00000
           0.00000   0.00000  25.75060
Lengths:  25.75060  25.75060  25.75060
Angles:   90.00000  90.00000  90.00000
Rectangular boundary conditions

net charge:   0.00000000

component   0 (CO2) lambda:  0 occupancy:  1 (1.000000)
    net charge:   0.00000000 [e]

Amount of molecules per component :
-------------------------------------------------------------------------------
Component 0 (CO2)
    molecules:         2.500000e+02 molecules
    number density:    1.464124e-02 molec/A^3
    density:           1.069714e+03 kg/m^3

Total potential energy/kʙ       -3.917954e+05 [K]
-------------------------------------------------------------------------------
    external field VDW/kʙ        0.000000e+00 [K]
    external field Real/kʙ       0.000000e+00 [K]
    framework-molecule VDW/kʙ    0.000000e+00 [K]
    framework-molecule Real/kʙ   0.000000e+00 [K]
    molecule-molecule VDW/kʙ    -2.782556e+05 [K]
    molecule-molecule Real/kʙ   -8.295594e+04 [K]
    Van der Waals (Tail)/kʙ     -1.174428e+04 [K]
    Ewald Fourier/kʙ             1.748755e+04 [K]
    Ewald self/kʙ               -5.557308e+06 [K]
    Ewald exclusion/kʙ           5.520981e+06 [K]
    intra VDW/kʙ                 0.000000e+00 [K]
    intra Coulombic/kʙ           0.000000e+00 [K]
    polarization/kʙ              0.000000e+00 [K]
    dU/dlambda VDW/kʙ            0.000000e+00 [K]
    dU/dlambda Real/kʙ           0.000000e+00 [K]
    dU/dlambda Ewald/kʙ          0.000000e+00 [K]


Initialization: Current cycle: 900 out of 1000
===============================================================================

Box:      25.44677   0.00000   0.00000
           0.00000  25.44677   0.00000
           0.00000   0.00000  25.44677
Lengths:  25.44677  25.44677  25.44677
Angles:   90.00000  90.00000  90.00000
Rectangular boundary conditions

net charge:   0.00000000

component   0 (CO2) lambda:  0 occupancy:  1 (1.000000)
    net charge:   0.00000000 [e]

Amount of molecules per component :
-------------------------------------------------------------------------------
Component 0 (CO2)
    molecules:         2.500000e+02 molecules
    number density:    1.517197e-02 molec/A^3
    density:           1.108490e+03 kg/m^3

Total potential energy/kʙ       -4.081803e+05 [K]
-------------------------------------------------------------------------------
    external field VDW/kʙ        0.000000e+00 [K]
    external field Real/kʙ       0.000000e+00 [K]
    framework-molecule VDW/kʙ    0.000000e+00 [K]
    framework-molecule Real/kʙ   0.000000e+00 [K]
    molecule-molecule VDW/kʙ    -2.878100e+05 [K]
    molecule-molecule Real/kʙ   -8.785613e+04 [K]
    Van der Waals (Tail)/kʙ     -1.217001e+04 [K]
    Ewald Fourier/kʙ             1.598298e+04 [K]
    Ewald self/kʙ               -5.557308e+06 [K]
    Ewald exclusion/kʙ           5.520981e+06 [K]
    intra VDW/kʙ                 0.000000e+00 [K]
    intra Coulombic/kʙ           0.000000e+00 [K]
    polarization/kʙ              0.000000e+00 [K]
    dU/dlambda VDW/kʙ            0.000000e+00 [K]
    dU/dlambda Real/kʙ           0.000000e+00 [K]
    dU/dlambda Ewald/kʙ          0.000000e+00 [K]


Current cycle: 0 out of 5000
===============================================================================

Box:      25.21434   0.00000   0.00000  Average:  25.21434   0.00000   0.00000
           0.00000  25.21434   0.00000             0.00000  25.21434   0.00000
           0.00000   0.00000  25.21434             0.00000   0.00000  25.21434
Lengths:  25.21434  25.21434  25.21434  Average:  25.21434  25.21434  25.21434
Angles:   90.00000  90.00000  90.00000  Average:  90.00000  90.00000  90.00000
Rectangular boundary conditions

net charge:   0.00000000

component 0 (CO2) lambda:  0 occupancy:  1 (1.000000)
    net charge:   0.00000000 [e]

Amount of molecules per component :
-------------------------------------------------------------------------------
Component 0 (CO2)
    molecules:      2.500000e+02 molecules  (2.500000e+02 +/- 0.000000e+00)
    number density: 1.559542e-02 molec./A^3 (1.559542e-02 +/- 0.000000e+00)
    density:        1.139428e+03 kg/m^3     (1.139428e+03 +/- 0.000000e+00)

Average pressure tensor: 
-------------------------------------------------------------------------------
 5.3830e+02  0.0000e+00  0.0000e+00 +/- 0.0000e+00 0.0000e+00 0.0000e+00 [bar]
 0.0000e+00  5.3830e+02  0.0000e+00 +/- 0.0000e+00 0.0000e+00 0.0000e+00 [bar]
 0.0000e+00  0.0000e+00  5.3830e+02 +/- 0.0000e+00 0.0000e+00 0.0000e+00 [bar]
Ideal-gas pressure:   5.382954e+02 +/ 0.000000e+00 [bar]
Excess pressure:      0.000000e+00 +/ 0.000000e+00 [bar]
Pressure:             5.382954e+02 +/ 0.000000e+00 [bar]

Total potential energy/kʙ  -4.072892e+05 (-4.072892e+05 +/- 0.000000e+00) [K]
-------------------------------------------------------------------------------
ExternalField-molecule
    Van der Waals/kʙ        0.000000e+00 ( 0.000000e+00 +/- 0.000000e+00) [K]
Framework-molecule
    Van der Waals/kʙ        0.000000e+00 ( 0.000000e+00 +/- 0.000000e+00) [K]
    Van der Waals (Tail)/kʙ 0.000000e+00 ( 0.000000e+00 +/- 0.000000e+00) [K]
    Coulombic Real/kʙ       0.000000e+00 ( 0.000000e+00 +/- 0.000000e+00) [K]
    Coulombic Fourier/kʙ    0.000000e+00 ( 0.000000e+00 +/- 0.000000e+00) [K]
Molecule-molecule
    Van der Waals/kʙ       -2.930632e+05 (-2.930632e+05 +/- 0.000000e+00) [K]
    Van der Waals (Tail)/kʙ-1.250967e+04 (-1.250967e+04 +/- 0.000000e+00) [K]
    Coulombic Real/kʙ      -8.202499e+04 (-8.202499e+04 +/- 0.000000e+00) [K]
    Coulombic Fourier/kʙ   -1.969130e+04 (-1.969130e+04 +/- 0.000000e+00) [K]
    Molecule Intra/kʙ       0.000000e+00 ( 0.000000e+00 +/- 0.000000e+00) [K]

Current cycle: 100 out of 5000
===============================================================================

Box:      25.08727   0.00000   0.00000  Average:  25.23651   0.00000   0.00000
           0.00000  25.08727   0.00000             0.00000  25.23651   0.00000
           0.00000   0.00000  25.08727             0.00000   0.00000  25.23651
Lengths:  25.08727  25.08727  25.08727  Average:  25.23651  25.23651  25.23651
Angles:   90.00000  90.00000  90.00000  Average:  90.00000  90.00000  90.00000
Rectangular boundary conditions

net charge:   0.00000000

component 0 (CO2) lambda:  0 occupancy:  1 (1.000000)
    net charge:   0.00000000 [e]

Amount of molecules per component :
-------------------------------------------------------------------------------
Component 0 (CO2)
    molecules:      2.500000e+02 molecules  (2.500000e+02 +/- 0.000000e+00)
    number density: 1.583360e-02 molec./A^3 (1.555532e-02 +/- 0.000000e+00)
    density:        1.156830e+03 kg/m^3     (1.136498e+03 +/- 0.000000e+00)

Average pressure tensor: 
-------------------------------------------------------------------------------
 7.3845e+01 -1.5308e+00 -1.0718e+02 +/- 0.0000e+00 0.0000e+00 0.0000e+00 [bar]
-1.5308e+00  2.5209e+02 -9.9307e+01 +/- 0.0000e+00 0.0000e+00 0.0000e+00 [bar]
-1.0718e+02 -9.9307e+01  4.1791e+02 +/- 0.0000e+00 0.0000e+00 0.0000e+00 [bar]
Ideal-gas pressure:   5.369114e+02 +/ 0.000000e+00 [bar]
Excess pressure:     -2.889633e+02 +/ 0.000000e+00 [bar]
Pressure:             2.479481e+02 +/ 0.000000e+00 [bar]

Total potential energy/kʙ  -4.088530e+05 (-4.100369e+05 +/- 0.000000e+00) [K]
-------------------------------------------------------------------------------
ExternalField-molecule
    Van der Waals/kʙ        0.000000e+00 ( 0.000000e+00 +/- 0.000000e+00) [K]
Framework-molecule
    Van der Waals/kʙ        0.000000e+00 ( 0.000000e+00 +/- 0.000000e+00) [K]
    Van der Waals (Tail)/kʙ 0.000000e+00 ( 0.000000e+00 +/- 0.000000e+00) [K]
    Coulombic Real/kʙ       0.000000e+00 ( 0.000000e+00 +/- 0.000000e+00) [K]
    Coulombic Fourier/kʙ    0.000000e+00 ( 0.000000e+00 +/- 0.000000e+00) [K]
Molecule-molecule
    Van der Waals/kʙ       -2.868134e+05 (-2.938999e+05 +/- 0.000000e+00) [K]
    Van der Waals (Tail)/kʙ-1.270072e+04 (-1.251649e+04 +/- 0.000000e+00) [K]
    Coulombic Real/kʙ      -8.899231e+04 (-8.332718e+04 +/- 0.000000e+00) [K]
    Coulombic Fourier/kʙ   -2.034665e+04 (-2.029334e+04 +/- 0.000000e+00) [K]
    Molecule Intra/kʙ       0.000000e+00 ( 0.000000e+00 +/- 0.000000e+00) [K]

Current cycle: 200 out of 5000
===============================================================================

Box:      25.65053   0.00000   0.00000  Average:  25.37138   0.00000   0.00000
           0.00000  25.65053   0.00000             0.00000  25.37138   0.00000
           0.00000   0.00000  25.65053             0.00000   0.00000  25.37138
Lengths:  25.65053  25.65053  25.65053  Average:  25.37138  25.37138  25.37138
Angles:   90.00000  90.00000  90.00000  Average:  90.00000  90.00000  90.00000
Rectangular boundary conditions

net charge:   0.00000000

component 0 (CO2) lambda:  0 occupancy:  1 (1.000000)
    net charge:   0.00000000 [e]

Amount of molecules per component :
-------------------------------------------------------------------------------
Component 0 (CO2)
    molecules:      2.500000e+02 molecules  (2.500000e+02 +/- 0.000000e+00)
    number density: 1.481327e-02 molec./A^3 (1.531209e-02 +/- 0.000000e+00)
    density:        1.082283e+03 kg/m^3     (1.118727e+03 +/- 0.000000e+00)

Average pressure tensor: 
-------------------------------------------------------------------------------
 1.2106e+02 -2.0797e+01 -3.0152e+01 +/- 0.0000e+00 0.0000e+00 0.0000e+00 [bar]
-2.0797e+01  3.2632e+02 -6.0994e+01 +/- 0.0000e+00 0.0000e+00 0.0000e+00 [bar]
-3.0152e+01 -6.0994e+01  4.4124e+02 +/- 0.0000e+00 0.0000e+00 0.0000e+00 [bar]
Ideal-gas pressure:   5.285160e+02 +/ 0.000000e+00 [bar]
Excess pressure:     -2.323098e+02 +/ 0.000000e+00 [bar]
Pressure:             2.962062e+02 +/ 0.000000e+00 [bar]

Total potential energy/kʙ  -3.950200e+05 (-4.029219e+05 +/- 0.000000e+00) [K]
-------------------------------------------------------------------------------
ExternalField-molecule
    Van der Waals/kʙ        0.000000e+00 ( 0.000000e+00 +/- 0.000000e+00) [K]
Framework-molecule
    Van der Waals/kʙ        0.000000e+00 ( 0.000000e+00 +/- 0.000000e+00) [K]
    Van der Waals (Tail)/kʙ 0.000000e+00 ( 0.000000e+00 +/- 0.000000e+00) [K]
    Coulombic Real/kʙ       0.000000e+00 ( 0.000000e+00 +/- 0.000000e+00) [K]
    Coulombic Fourier/kʙ    0.000000e+00 ( 0.000000e+00 +/- 0.000000e+00) [K]
Molecule-molecule
    Van der Waals/kʙ       -2.810383e+05 (-2.878879e+05 +/- 0.000000e+00) [K]
    Van der Waals (Tail)/kʙ-1.188227e+04 (-1.229602e+04 +/- 0.000000e+00) [K]
    Coulombic Real/kʙ      -8.218756e+04 (-8.268264e+04 +/- 0.000000e+00) [K]
    Coulombic Fourier/kʙ   -1.991188e+04 (-2.005535e+04 +/- 0.000000e+00) [K]
    Molecule Intra/kʙ       0.000000e+00 ( 0.000000e+00 +/- 0.000000e+00) [K]

Current cycle: 300 out of 5000
===============================================================================

Box:      25.39260   0.00000   0.00000  Average:  25.38626   0.00000   0.00000
           0.00000  25.39260   0.00000             0.00000  25.38626   0.00000
           0.00000   0.00000  25.39260             0.00000   0.00000  25.38626
Lengths:  25.39260  25.39260  25.39260  Average:  25.38626  25.38626  25.38626
Angles:   90.00000  90.00000  90.00000  Average:  90.00000  90.00000  90.00000
Rectangular boundary conditions

net charge:   0.00000000

component 0 (CO2) lambda:  0 occupancy:  1 (1.000000)
    net charge:   0.00000000 [e]

Amount of molecules per component :
-------------------------------------------------------------------------------
Component 0 (CO2)
    molecules:      2.500000e+02 molecules  (2.500000e+02 +/- 0.000000e+00)
    number density: 1.526928e-02 molec./A^3 (1.528415e-02 +/- 0.000000e+00)
    density:        1.115600e+03 kg/m^3     (1.116686e+03 +/- 0.000000e+00)

Average pressure tensor: 
-------------------------------------------------------------------------------
 1.8467e+02 -1.8781e+01 -6.1542e+01 +/- 0.0000e+00 0.0000e+00 0.0000e+00 [bar]
-1.8781e+01  3.1788e+02  1.6494e+01 +/- 0.0000e+00 0.0000e+00 0.0000e+00 [bar]
-6.1542e+01  1.6494e+01  2.8663e+02 +/- 0.0000e+00 0.0000e+00 0.0000e+00 [bar]
Ideal-gas pressure:   5.275518e+02 +/ 0.000000e+00 [bar]
Excess pressure:     -2.644919e+02 +/ 0.000000e+00 [bar]
Pressure:             2.630599e+02 +/ 0.000000e+00 [bar]

Total potential energy/kʙ  -4.034281e+05 (-4.024689e+05 +/- 0.000000e+00) [K]
-------------------------------------------------------------------------------
ExternalField-molecule
    Van der Waals/kʙ        0.000000e+00 ( 0.000000e+00 +/- 0.000000e+00) [K]
Framework-molecule
    Van der Waals/kʙ        0.000000e+00 ( 0.000000e+00 +/- 0.000000e+00) [K]
    Van der Waals (Tail)/kʙ 0.000000e+00 ( 0.000000e+00 +/- 0.000000e+00) [K]
    Coulombic Real/kʙ       0.000000e+00 ( 0.000000e+00 +/- 0.000000e+00) [K]
    Coulombic Fourier/kʙ    0.000000e+00 ( 0.000000e+00 +/- 0.000000e+00) [K]
Molecule-molecule
    Van der Waals/kʙ       -2.855535e+05 (-2.870596e+05 +/- 0.000000e+00) [K]
    Van der Waals (Tail)/kʙ-1.224806e+04 (-1.227955e+04 +/- 0.000000e+00) [K]
    Coulombic Real/kʙ      -8.589853e+04 (-8.301736e+04 +/- 0.000000e+00) [K]
    Coulombic Fourier/kʙ   -1.972803e+04 (-2.011244e+04 +/- 0.000000e+00) [K]
    Molecule Intra/kʙ       0.000000e+00 ( 0.000000e+00 +/- 0.000000e+00) [K]

Current cycle: 400 out of 5000
===============================================================================

Box:      25.45332   0.00000   0.00000  Average:  25.41464   0.00000   0.00000
           0.00000  25.45332   0.00000             0.00000  25.41464   0.00000
           0.00000   0.00000  25.45332             0.00000   0.00000  25.41464
Lengths:  25.45332  25.45332  25.45332  Average:  25.41464  25.41464  25.41464
Angles:   90.00000  90.00000  90.00000  Average:  90.00000  90.00000  90.00000
Rectangular boundary conditions

net charge:   0.00000000

component 0 (CO2) lambda:  0 occupancy:  1 (1.000000)
    net charge:   0.00000000 [e]

Amount of molecules per component :
-------------------------------------------------------------------------------
Component 0 (CO2)
    molecules:      2.500000e+02 molecules  (2.500000e+02 +/- 0.000000e+00)
    number density: 1.516026e-02 molec./A^3 (1.523276e-02 +/- 0.000000e+00)
    density:        1.107635e+03 kg/m^3     (1.112931e+03 +/- 0.000000e+00)

Average pressure tensor: 
-------------------------------------------------------------------------------
 2.2287e+02  3.5724e+01 -8.4163e+01 +/- 0.0000e+00 0.0000e+00 0.0000e+00 [bar]
 3.5724e+01  2.9632e+02  5.7394e+01 +/- 0.0000e+00 0.0000e+00 0.0000e+00 [bar]
-8.4163e+01  5.7394e+01  2.6953e+02 +/- 0.0000e+00 0.0000e+00 0.0000e+00 [bar]
Ideal-gas pressure:   5.257778e+02 +/ 0.000000e+00 [bar]
Excess pressure:     -2.628684e+02 +/ 0.000000e+00 [bar]
Pressure:             2.629094e+02 +/ 0.000000e+00 [bar]

Total potential energy/kʙ  -3.907895e+05 (-4.013893e+05 +/- 0.000000e+00) [K]
-------------------------------------------------------------------------------
ExternalField-molecule
    Van der Waals/kʙ        0.000000e+00 ( 0.000000e+00 +/- 0.000000e+00) [K]
Framework-molecule
    Van der Waals/kʙ        0.000000e+00 ( 0.000000e+00 +/- 0.000000e+00) [K]
    Van der Waals (Tail)/kʙ 0.000000e+00 ( 0.000000e+00 +/- 0.000000e+00) [K]
    Coulombic Real/kʙ       0.000000e+00 ( 0.000000e+00 +/- 0.000000e+00) [K]
    Coulombic Fourier/kʙ    0.000000e+00 ( 0.000000e+00 +/- 0.000000e+00) [K]
Molecule-molecule
    Van der Waals/kʙ       -2.665426e+05 (-2.852881e+05 +/- 0.000000e+00) [K]
    Van der Waals (Tail)/kʙ-1.216061e+04 (-1.224248e+04 +/- 0.000000e+00) [K]
    Coulombic Real/kʙ      -9.068862e+04 (-8.364869e+04 +/- 0.000000e+00) [K]
    Coulombic Fourier/kʙ   -2.139764e+04 (-2.021009e+04 +/- 0.000000e+00) [K]
    Molecule Intra/kʙ       0.000000e+00 ( 0.000000e+00 +/- 0.000000e+00) [K]

Current cycle: 500 out of 5000
===============================================================================

Box:      25.60732   0.00000   0.00000  Average:  25.45747   0.00000   0.00000
           0.00000  25.60732   0.00000             0.00000  25.45747   0.00000
           0.00000   0.00000  25.60732             0.00000   0.00000  25.45747
Lengths:  25.60732  25.60732  25.60732  Average:  25.45747  25.45747  25.45747
Angles:   90.00000  90.00000  90.00000  Average:  90.00000  90.00000  90.00000
Rectangular boundary conditions

net charge:   0.00000000

component 0 (CO2) lambda:  0 occupancy:  1 (1.000000)
    net charge:   0.00000000 [e]

Amount of molecules per component :
-------------------------------------------------------------------------------
Component 0 (CO2)
    molecules:      2.500000e+02 molecules  (2.500000e+02 +/- 0.000000e+00)
    number density: 1.488838e-02 molec./A^3 (1.515672e-02 +/- 0.000000e+00)
    density:        1.087771e+03 kg/m^3     (1.107376e+03 +/- 0.000000e+00)

Average pressure tensor: 
-------------------------------------------------------------------------------
 1.8987e+02  2.1174e+01 -7.4114e+01 +/- 0.0000e+00 0.0000e+00 0.0000e+00 [bar]
 2.1174e+01  2.6550e+02  5.5973e+01 +/- 0.0000e+00 0.0000e+00 0.0000e+00 [bar]
-7.4114e+01  5.5973e+01  2.5653e+02 +/- 0.0000e+00 0.0000e+00 0.0000e+00 [bar]
Ideal-gas pressure:   5.231534e+02 +/ 0.000000e+00 [bar]
Excess pressure:     -2.858535e+02 +/ 0.000000e+00 [bar]
Pressure:             2.372999e+02 +/ 0.000000e+00 [bar]

Total potential energy/kʙ  -3.964531e+05 (-4.000626e+05 +/- 0.000000e+00) [K]
-------------------------------------------------------------------------------
ExternalField-molecule
    Van der Waals/kʙ        0.000000e+00 ( 0.000000e+00 +/- 0.000000e+00) [K]
Framework-molecule
    Van der Waals/kʙ        0.000000e+00 ( 0.000000e+00 +/- 0.000000e+00) [K]
    Van der Waals (Tail)/kʙ 0.000000e+00 ( 0.000000e+00 +/- 0.000000e+00) [K]
    Coulombic Real/kʙ       0.000000e+00 ( 0.000000e+00 +/- 0.000000e+00) [K]
    Coulombic Fourier/kʙ    0.000000e+00 ( 0.000000e+00 +/- 0.000000e+00) [K]
Molecule-molecule
    Van der Waals/kʙ       -2.791795e+05 (-2.841842e+05 +/- 0.000000e+00) [K]
    Van der Waals (Tail)/kʙ-1.194252e+04 (-1.217105e+04 +/- 0.000000e+00) [K]
    Coulombic Real/kʙ      -8.640216e+04 (-8.365647e+04 +/- 0.000000e+00) [K]
    Coulombic Fourier/kʙ   -1.892889e+04 (-2.005091e+04 +/- 0.000000e+00) [K]
    Molecule Intra/kʙ       0.000000e+00 ( 0.000000e+00 +/- 0.000000e+00) [K]

Current cycle: 600 out of 5000
===============================================================================

Box:      25.70475   0.00000   0.00000  Average:  25.48859   0.00000   0.00000
           0.00000  25.70475   0.00000             0.00000  25.48859   0.00000
           0.00000   0.00000  25.70475             0.00000   0.00000  25.48859
Lengths:  25.70475  25.70475  25.70475  Average:  25.48859  25.48859  25.48859
Angles:   90.00000  90.00000  90.00000  Average:  90.00000  90.00000  90.00000
Rectangular boundary conditions

net charge:   0.00000000

component 0 (CO2) lambda:  0 occupancy:  1 (1.000000)
    net charge:   0.00000000 [e]

Amount of molecules per component :
-------------------------------------------------------------------------------
Component 0 (CO2)
    molecules:      2.500000e+02 molecules  (2.500000e+02 +/- 0.000000e+00)
    number density: 1.471973e-02 molec./A^3 (1.510146e-02 +/- 0.000000e+00)
    density:        1.075449e+03 kg/m^3     (1.103338e+03 +/- 0.000000e+00)

Average pressure tensor: 
-------------------------------------------------------------------------------
 2.2481e+02  3.2480e+01 -6.3251e+01 +/- 0.0000e+00 0.0000e+00 0.0000e+00 [bar]
 3.2480e+01  2.5687e+02  3.9624e+01 +/- 0.0000e+00 0.0000e+00 0.0000e+00 [bar]
-6.3251e+01  3.9624e+01  2.5693e+02 +/- 0.0000e+00 0.0000e+00 0.0000e+00 [bar]
Ideal-gas pressure:   5.212458e+02 +/ 0.000000e+00 [bar]
Excess pressure:     -2.750452e+02 +/ 0.000000e+00 [bar]
Pressure:             2.462005e+02 +/ 0.000000e+00 [bar]

Total potential energy/kʙ  -3.817066e+05 (-3.980436e+05 +/- 0.000000e+00) [K]
-------------------------------------------------------------------------------
ExternalField-molecule
    Van der Waals/kʙ        0.000000e+00 ( 0.000000e+00 +/- 0.000000e+00) [K]
Framework-molecule
    Van der Waals/kʙ        0.000000e+00 ( 0.000000e+00 +/- 0.000000e+00) [K]
    Van der Waals (Tail)/kʙ 0.000000e+00 ( 0.000000e+00 +/- 0.000000e+00) [K]
    Coulombic Real/kʙ       0.000000e+00 ( 0.000000e+00 +/- 0.000000e+00) [K]
    Coulombic Fourier/kʙ    0.000000e+00 ( 0.000000e+00 +/- 0.000000e+00) [K]
Molecule-molecule
    Van der Waals/kʙ       -2.729926e+05 (-2.828921e+05 +/- 0.000000e+00) [K]
    Van der Waals (Tail)/kʙ-1.180725e+04 (-1.212763e+04 +/- 0.000000e+00) [K]
    Coulombic Real/kʙ      -7.818428e+04 (-8.307020e+04 +/- 0.000000e+00) [K]
    Coulombic Fourier/kʙ   -1.872244e+04 (-1.995365e+04 +/- 0.000000e+00) [K]
    Molecule Intra/kʙ       0.000000e+00 ( 0.000000e+00 +/- 0.000000e+00) [K]

Current cycle: 700 out of 5000
===============================================================================

Box:      25.78290   0.00000   0.00000  Average:  25.53717   0.00000   0.00000
           0.00000  25.78290   0.00000             0.00000  25.53717   0.00000
           0.00000   0.00000  25.78290             0.00000   0.00000  25.53717
Lengths:  25.78290  25.78290  25.78290  Average:  25.53717  25.53717  25.53717
Angles:   90.00000  90.00000  90.00000  Average:  90.00000  90.00000  90.00000
Rectangular boundary conditions

net charge:   0.00000000

component 0 (CO2) lambda:  0 occupancy:  1 (1.000000)
    net charge:   0.00000000 [e]

Amount of molecules per component :
-------------------------------------------------------------------------------
Component 0 (CO2)
    molecules:      2.500000e+02 molecules  (2.500000e+02 +/- 0.000000e+00)
    number density: 1.458629e-02 molec./A^3 (1.501692e-02 +/- 0.000000e+00)
    density:        1.065699e+03 kg/m^3     (1.097162e+03 +/- 0.000000e+00)

Average pressure tensor: 
-------------------------------------------------------------------------------
 2.4119e+02  3.2505e+01 -3.7159e+01 +/- 0.0000e+00 0.0000e+00 0.0000e+00 [bar]
 3.2505e+01  2.3897e+02  5.5134e+01 +/- 0.0000e+00 0.0000e+00 0.0000e+00 [bar]
-3.7159e+01  5.5134e+01  2.7017e+02 +/- 0.0000e+00 0.0000e+00 0.0000e+00 [bar]
Ideal-gas pressure:   5.183280e+02 +/ 0.000000e+00 [bar]
Excess pressure:     -2.682207e+02 +/ 0.000000e+00 [bar]
Pressure:             2.501073e+02 +/ 0.000000e+00 [bar]

Total potential energy/kʙ  -3.748655e+05 (-3.949226e+05 +/- 0.000000e+00) [K]
-------------------------------------------------------------------------------
ExternalField-molecule
    Van der Waals/kʙ        0.000000e+00 ( 0.000000e+00 +/- 0.000000e+00) [K]
Framework-molecule
    Van der Waals/kʙ        0.000000e+00 ( 0.000000e+00 +/- 0.000000e+00) [K]
    Van der Waals (Tail)/kʙ 0.000000e+00 ( 0.000000e+00 +/- 0.000000e+00) [K]
    Coulombic Real/kʙ       0.000000e+00 ( 0.000000e+00 +/- 0.000000e+00) [K]
    Coulombic Fourier/kʙ    0.000000e+00 ( 0.000000e+00 +/- 0.000000e+00) [K]
Molecule-molecule
    Van der Waals/kʙ       -2.662192e+05 (-2.808338e+05 +/- 0.000000e+00) [K]
    Van der Waals (Tail)/kʙ-1.170020e+04 (-1.206092e+04 +/- 0.000000e+00) [K]
    Coulombic Real/kʙ      -7.916270e+04 (-8.220953e+04 +/- 0.000000e+00) [K]
    Coulombic Fourier/kʙ   -1.778344e+04 (-1.981833e+04 +/- 0.000000e+00) [K]
    Molecule Intra/kʙ       0.000000e+00 ( 0.000000e+00 +/- 0.000000e+00) [K]

Current cycle: 800 out of 5000
===============================================================================

Box:      25.93929   0.00000   0.00000  Average:  25.58662   0.00000   0.00000
           0.00000  25.93929   0.00000             0.00000  25.58662   0.00000
           0.00000   0.00000  25.93929             0.00000   0.00000  25.58662
Lengths:  25.93929  25.93929  25.93929  Average:  25.58662  25.58662  25.58662
Angles:   90.00000  90.00000  90.00000  Average:  90.00000  90.00000  90.00000
Rectangular boundary conditions

net charge:   0.00000000

component 0 (CO2) lambda:  0 occupancy:  1 (1.000000)
    net charge:   0.00000000 [e]

Amount of molecules per component :
-------------------------------------------------------------------------------
Component 0 (CO2)
    molecules:      2.500000e+02 molecules  (2.500000e+02 +/- 0.000000e+00)
    number density: 1.432405e-02 molec./A^3 (1.493182e-02 +/- 0.000000e+00)
    density:        1.046539e+03 kg/m^3     (1.090944e+03 +/- 0.000000e+00)

Average pressure tensor: 
-------------------------------------------------------------------------------
 2.2952e+02  4.5127e+01 -2.6959e+01 +/- 0.0000e+00 0.0000e+00 0.0000e+00 [bar]
 4.5127e+01  2.3473e+02  5.8222e+01 +/- 0.0000e+00 0.0000e+00 0.0000e+00 [bar]
-2.6959e+01  5.8222e+01  2.6503e+02 +/- 0.0000e+00 0.0000e+00 0.0000e+00 [bar]
Ideal-gas pressure:   5.153904e+02 +/ 0.000000e+00 [bar]
Excess pressure:     -2.722989e+02 +/ 0.000000e+00 [bar]
Pressure:             2.430915e+02 +/ 0.000000e+00 [bar]

Total potential energy/kʙ  -3.878728e+05 (-3.931458e+05 +/- 0.000000e+00) [K]
-------------------------------------------------------------------------------
ExternalField-molecule
    Van der Waals/kʙ        0.000000e+00 ( 0.000000e+00 +/- 0.000000e+00) [K]
Framework-molecule
    Van der Waals/kʙ        0.000000e+00 ( 0.000000e+00 +/- 0.000000e+00) [K]
    Van der Waals (Tail)/kʙ 0.000000e+00 ( 0.000000e+00 +/- 0.000000e+00) [K]
    Coulombic Real/kʙ       0.000000e+00 ( 0.000000e+00 +/- 0.000000e+00) [K]
    Coulombic Fourier/kʙ    0.000000e+00 ( 0.000000e+00 +/- 0.000000e+00) [K]
Molecule-molecule
    Van der Waals/kʙ       -2.694176e+05 (-2.791761e+05 +/- 0.000000e+00) [K]
    Van der Waals (Tail)/kʙ-1.148985e+04 (-1.198793e+04 +/- 0.000000e+00) [K]
    Coulombic Real/kʙ      -8.617990e+04 (-8.215606e+04 +/- 0.000000e+00) [K]
    Coulombic Fourier/kʙ   -2.078553e+04 (-1.982570e+04 +/- 0.000000e+00) [K]
    Molecule Intra/kʙ       0.000000e+00 ( 0.000000e+00 +/- 0.000000e+00) [K]

Current cycle: 900 out of 5000
===============================================================================

Box:      25.59970   0.00000   0.00000  Average:  25.61832   0.00000   0.00000
           0.00000  25.59970   0.00000             0.00000  25.61832   0.00000
           0.00000   0.00000  25.59970             0.00000   0.00000  25.61832
Lengths:  25.59970  25.59970  25.59970  Average:  25.61832  25.61832  25.61832
Angles:   90.00000  90.00000  90.00000  Average:  90.00000  90.00000  90.00000
Rectangular boundary conditions

net charge:   0.00000000

component 0 (CO2) lambda:  0 occupancy:  1 (1.000000)
    net charge:   0.00000000 [e]

Amount of molecules per component :
-------------------------------------------------------------------------------
Component 0 (CO2)
    molecules:      2.500000e+02 molecules  (2.500000e+02 +/- 0.000000e+00)
    number density: 1.490168e-02 molec./A^3 (1.487708e-02 +/- 0.000000e+00)
    density:        1.088742e+03 kg/m^3     (1.086945e+03 +/- 0.000000e+00)

Average pressure tensor: 
-------------------------------------------------------------------------------
 2.2197e+02  6.0302e+01 -2.9611e+01 +/- 0.0000e+00 0.0000e+00 0.0000e+00 [bar]
 6.0302e+01  2.5954e+02  4.4262e+01 +/- 0.0000e+00 0.0000e+00 0.0000e+00 [bar]
-2.9611e+01  4.4262e+01  2.5429e+02 +/- 0.0000e+00 0.0000e+00 0.0000e+00 [bar]
Ideal-gas pressure:   5.135011e+02 +/ 0.000000e+00 [bar]
Excess pressure:     -2.682379e+02 +/ 0.000000e+00 [bar]
Pressure:             2.452631e+02 +/ 0.000000e+00 [bar]

Total potential energy/kʙ  -3.841634e+05 (-3.916358e+05 +/- 0.000000e+00) [K]
-------------------------------------------------------------------------------
ExternalField-molecule
    Van der Waals/kʙ        0.000000e+00 ( 0.000000e+00 +/- 0.000000e+00) [K]
Framework-molecule
    Van der Waals/kʙ        0.000000e+00 ( 0.000000e+00 +/- 0.000000e+00) [K]
    Van der Waals (Tail)/kʙ 0.000000e+00 ( 0.000000e+00 +/- 0.000000e+00) [K]
    Coulombic Real/kʙ       0.000000e+00 ( 0.000000e+00 +/- 0.000000e+00) [K]
    Coulombic Fourier/kʙ    0.000000e+00 ( 0.000000e+00 +/- 0.000000e+00) [K]
Molecule-molecule
    Van der Waals/kʙ       -2.724501e+05 (-2.778890e+05 +/- 0.000000e+00) [K]
    Van der Waals (Tail)/kʙ-1.195319e+04 (-1.194730e+04 +/- 0.000000e+00) [K]
    Coulombic Real/kʙ      -8.002645e+04 (-8.197509e+04 +/- 0.000000e+00) [K]
    Coulombic Fourier/kʙ   -1.973362e+04 (-1.982445e+04 +/- 0.000000e+00) [K]
    Molecule Intra/kʙ       0.000000e+00 ( 0.000000e+00 +/- 0.000000e+00) [K]

Current cycle: 1000 out of 5000
===============================================================================

Box:      25.60901   0.00000   0.00000  Average:  25.61514   0.00000   0.00000
           0.00000  25.60901   0.00000             0.00000  25.61514   0.00000
           0.00000   0.00000  25.60901             0.00000   0.00000  25.61514
Lengths:  25.60901  25.60901  25.60901  Average:  25.61514  25.61514  25.61514
Angles:   90.00000  90.00000  90.00000  Average:  90.00000  90.00000  90.00000
Rectangular boundary conditions

net charge:   0.00000000

component 0 (CO2) lambda:  0 occupancy:  1 (1.000000)
    net charge:   0.00000000 [e]

Amount of molecules per component :
-------------------------------------------------------------------------------
Component 0 (CO2)
    molecules:      2.500000e+02 molecules  (2.500000e+02 +/- 0.000000e+00)
    number density: 1.488544e-02 molec./A^3 (1.488191e-02 +/- 0.000000e+00)
    density:        1.087556e+03 kg/m^3     (1.087298e+03 +/- 0.000000e+00)

Average pressure tensor: 
-------------------------------------------------------------------------------
 2.2940e+02  4.0381e+01 -1.3210e+01 +/- 0.0000e+00 0.0000e+00 0.0000e+00 [bar]
 4.0381e+01  2.7856e+02  4.8675e+01 +/- 0.0000e+00 0.0000e+00 0.0000e+00 [bar]
-1.3210e+01  4.8675e+01  2.4458e+02 +/- 0.0000e+00 0.0000e+00 0.0000e+00 [bar]
Ideal-gas pressure:   5.136678e+02 +/ 0.000000e+00 [bar]
Excess pressure:     -2.628242e+02 +/ 0.000000e+00 [bar]
Pressure:             2.508437e+02 +/ 0.000000e+00 [bar]

Total potential energy/kʙ  -3.910734e+05 (-3.915806e+05 +/- 0.000000e+00) [K]
-------------------------------------------------------------------------------
ExternalField-molecule
    Van der Waals/kʙ        0.000000e+00 ( 0.000000e+00 +/- 0.000000e+00) [K]
Framework-molecule
    Van der Waals/kʙ        0.000000e+00 ( 0.000000e+00 +/- 0.000000e+00) [K]
    Van der Waals (Tail)/kʙ 0.000000e+00 ( 0.000000e+00 +/- 0.000000e+00) [K]
    Coulombic Real/kʙ       0.000000e+00 ( 0.000000e+00 +/- 0.000000e+00) [K]
    Coulombic Fourier/kʙ    0.000000e+00 ( 0.000000e+00 +/- 0.000000e+00) [K]
Molecule-molecule
    Van der Waals/kʙ       -2.780145e+05 (-2.780850e+05 +/- 0.000000e+00) [K]
    Van der Waals (Tail)/kʙ-1.194017e+04 (-1.195433e+04 +/- 0.000000e+00) [K]
    Coulombic Real/kʙ      -8.061452e+04 (-8.169462e+04 +/- 0.000000e+00) [K]
    Coulombic Fourier/kʙ   -2.050429e+04 (-1.984659e+04 +/- 0.000000e+00) [K]
    Molecule Intra/kʙ       0.000000e+00 ( 0.000000e+00 +/- 0.000000e+00) [K]

Current cycle: 1100 out of 5000
===============================================================================

Box:      25.72519   0.00000   0.00000  Average:  25.61789   0.00000   0.00000
           0.00000  25.72519   0.00000             0.00000  25.61789   0.00000
           0.00000   0.00000  25.72519             0.00000   0.00000  25.61789
Lengths:  25.72519  25.72519  25.72519  Average:  25.61789  25.61789  25.61789
Angles:   90.00000  90.00000  90.00000  Average:  90.00000  90.00000  90.00000
Rectangular boundary conditions

net charge:   0.00000000

component 0 (CO2) lambda:  0 occupancy:  1 (1.000000)
    net charge:   0.00000000 [e]

Amount of molecules per component :
-------------------------------------------------------------------------------
Component 0 (CO2)
    molecules:      2.500000e+02 molecules  (2.500000e+02 +/- 0.000000e+00)
    number density: 1.468467e-02 molec./A^3 (1.487657e-02 +/- 0.000000e+00)
    density:        1.072887e+03 kg/m^3     (1.086908e+03 +/- 0.000000e+00)

Average pressure tensor: 
-------------------------------------------------------------------------------
 2.2741e+02  4.6021e+01 -1.3435e+00 +/- 0.0000e+00 0.0000e+00 0.0000e+00 [bar]
 4.6021e+01  2.8817e+02  3.9683e+01 +/- 0.0000e+00 0.0000e+00 0.0000e+00 [bar]
-1.3435e+00  3.9683e+01  2.4769e+02 +/- 0.0000e+00 0.0000e+00 0.0000e+00 [bar]
Ideal-gas pressure:   5.134836e+02 +/ 0.000000e+00 [bar]
Excess pressure:     -2.590610e+02 +/ 0.000000e+00 [bar]
Pressure:             2.544227e+02 +/ 0.000000e+00 [bar]

Total potential energy/kʙ  -3.909392e+05 (-3.913272e+05 +/- 0.000000e+00) [K]
-------------------------------------------------------------------------------
ExternalField-molecule
    Van der Waals/kʙ        0.000000e+00 ( 0.000000e+00 +/- 0.000000e+00) [K]
Framework-molecule
    Van der Waals/kʙ        0.000000e+00 ( 0.000000e+00 +/- 0.000000e+00) [K]
    Van der Waals (Tail)/kʙ 0.000000e+00 ( 0.000000e+00 +/- 0.000000e+00) [K]
    Coulombic Real/kʙ       0.000000e+00 ( 0.000000e+00 +/- 0.000000e+00) [K]
    Coulombic Fourier/kʙ    0.000000e+00 ( 0.000000e+00 +/- 0.000000e+00) [K]
Molecule-molecule
    Van der Waals/kʙ       -2.766040e+05 (-2.780559e+05 +/- 0.000000e+00) [K]
    Van der Waals (Tail)/kʙ-1.177912e+04 (-1.195069e+04 +/- 0.000000e+00) [K]
    Coulombic Real/kʙ      -8.263420e+04 (-8.150133e+04 +/- 0.000000e+00) [K]
    Coulombic Fourier/kʙ   -1.992190e+04 (-1.981925e+04 +/- 0.000000e+00) [K]
    Molecule Intra/kʙ       0.000000e+00 ( 0.000000e+00 +/- 0.000000e+00) [K]

Current cycle: 1200 out of 5000
===============================================================================

Box:      25.28119   0.00000   0.00000  Average:  25.61463   0.00000   0.00000
           0.00000  25.28119   0.00000             0.00000  25.61463   0.00000
           0.00000   0.00000  25.28119             0.00000   0.00000  25.61463
Lengths:  25.28119  25.28119  25.28119  Average:  25.61463  25.61463  25.61463
Angles:   90.00000  90.00000  90.00000  Average:  90.00000  90.00000  90.00000
Rectangular boundary conditions

net charge:   0.00000000

component 0 (CO2) lambda:  0 occupancy:  1 (1.000000)
    net charge:   0.00000000 [e]

Amount of molecules per component :
-------------------------------------------------------------------------------
Component 0 (CO2)
    molecules:      2.500000e+02 molecules  (2.500000e+02 +/- 0.000000e+00)
    number density: 1.547203e-02 molec./A^3 (1.488183e-02 +/- 0.000000e+00)
    density:        1.130413e+03 kg/m^3     (1.087292e+03 +/- 0.000000e+00)

Average pressure tensor: 
-------------------------------------------------------------------------------
 2.0615e+02  3.9645e+01  5.0831e+00 +/- 0.0000e+00 0.0000e+00 0.0000e+00 [bar]
 3.9645e+01  2.7683e+02  3.8335e+01 +/- 0.0000e+00 0.0000e+00 0.0000e+00 [bar]
 5.0831e+00  3.8335e+01  2.5435e+02 +/- 0.0000e+00 0.0000e+00 0.0000e+00 [bar]
Ideal-gas pressure:   5.136652e+02 +/ 0.000000e+00 [bar]
Excess pressure:     -2.678880e+02 +/ 0.000000e+00 [bar]
Pressure:             2.457773e+02 +/ 0.000000e+00 [bar]

Total potential energy/kʙ  -3.964127e+05 (-3.912969e+05 +/- 0.000000e+00) [K]
-------------------------------------------------------------------------------
ExternalField-molecule
    Van der Waals/kʙ        0.000000e+00 ( 0.000000e+00 +/- 0.000000e+00) [K]
Framework-molecule
    Van der Waals/kʙ        0.000000e+00 ( 0.000000e+00 +/- 0.000000e+00) [K]
    Van der Waals (Tail)/kʙ 0.000000e+00 ( 0.000000e+00 +/- 0.000000e+00) [K]
    Coulombic Real/kʙ       0.000000e+00 ( 0.000000e+00 +/- 0.000000e+00) [K]
    Coulombic Fourier/kʙ    0.000000e+00 ( 0.000000e+00 +/- 0.000000e+00) [K]
Molecule-molecule
    Van der Waals/kʙ       -2.819346e+05 (-2.782219e+05 +/- 0.000000e+00) [K]
    Van der Waals (Tail)/kʙ-1.241069e+04 (-1.195593e+04 +/- 0.000000e+00) [K]
    Coulombic Real/kʙ      -8.136014e+04 (-8.128772e+04 +/- 0.000000e+00) [K]
    Coulombic Fourier/kʙ   -2.070722e+04 (-1.983141e+04 +/- 0.000000e+00) [K]
    Molecule Intra/kʙ       0.000000e+00 ( 0.000000e+00 +/- 0.000000e+00) [K]

Current cycle: 1300 out of 5000
===============================================================================

Box:      25.69645   0.00000   0.00000  Average:  25.61559   0.00000   0.00000
           0.00000  25.69645   0.00000             0.00000  25.61559   0.00000
           0.00000   0.00000  25.69645             0.00000   0.00000  25.61559
Lengths:  25.69645  25.69645  25.69645  Average:  25.61559  25.61559  25.61559
Angles:   90.00000  90.00000  90.00000  Average:  90.00000  90.00000  90.00000
Rectangular boundary conditions

net charge:   0.00000000

component 0 (CO2) lambda:  0 occupancy:  1 (1.000000)
    net charge:   0.00000000 [e]

Amount of molecules per component :
-------------------------------------------------------------------------------
Component 0 (CO2)
    molecules:      2.500000e+02 molecules  (2.500000e+02 +/- 0.000000e+00)
    number density: 1.473399e-02 molec./A^3 (1.487993e-02 +/- 0.000000e+00)
    density:        1.076491e+03 kg/m^3     (1.087153e+03 +/- 0.000000e+00)

Average pressure tensor: 
-------------------------------------------------------------------------------
 1.9596e+02  4.5685e+01 -4.0731e+00 +/- 0.0000e+00 0.0000e+00 0.0000e+00 [bar]
 4.5685e+01  2.7310e+02  3.5368e+01 +/- 0.0000e+00 0.0000e+00 0.0000e+00 [bar]
-4.0731e+00  3.5368e+01  2.7068e+02 +/- 0.0000e+00 0.0000e+00 0.0000e+00 [bar]
Ideal-gas pressure:   5.135997e+02 +/ 0.000000e+00 [bar]
Excess pressure:     -2.670187e+02 +/ 0.000000e+00 [bar]
Pressure:             2.465810e+02 +/ 0.000000e+00 [bar]

Total potential energy/kʙ  -3.861286e+05 (-3.910484e+05 +/- 0.000000e+00) [K]
-------------------------------------------------------------------------------
ExternalField-molecule
    Van der Waals/kʙ        0.000000e+00 ( 0.000000e+00 +/- 0.000000e+00) [K]
Framework-molecule
    Van der Waals/kʙ        0.000000e+00 ( 0.000000e+00 +/- 0.000000e+00) [K]
    Van der Waals (Tail)/kʙ 0.000000e+00 ( 0.000000e+00 +/- 0.000000e+00) [K]
    Coulombic Real/kʙ       0.000000e+00 ( 0.000000e+00 +/- 0.000000e+00) [K]
    Coulombic Fourier/kʙ    0.000000e+00 ( 0.000000e+00 +/- 0.000000e+00) [K]
Molecule-molecule
    Van der Waals/kʙ       -2.760674e+05 (-2.781647e+05 +/- 0.000000e+00) [K]
    Van der Waals (Tail)/kʙ-1.181869e+04 (-1.195194e+04 +/- 0.000000e+00) [K]
    Coulombic Real/kʙ      -7.880661e+04 (-8.110080e+04 +/- 0.000000e+00) [K]
    Coulombic Fourier/kʙ   -1.943593e+04 (-1.983092e+04 +/- 0.000000e+00) [K]
    Molecule Intra/kʙ       0.000000e+00 ( 0.000000e+00 +/- 0.000000e+00) [K]

Current cycle: 1400 out of 5000
===============================================================================

Box:      25.52340   0.00000   0.00000  Average:  25.61615   0.00000   0.00000
           0.00000  25.52340   0.00000             0.00000  25.61615   0.00000
           0.00000   0.00000  25.52340             0.00000   0.00000  25.61615
Lengths:  25.52340  25.52340  25.52340  Average:  25.61615  25.61615  25.61615
Angles:   90.00000  90.00000  90.00000  Average:  90.00000  90.00000  90.00000
Rectangular boundary conditions

net charge:   0.00000000

component 0 (CO2) lambda:  0 occupancy:  1 (1.000000)
    net charge:   0.00000000 [e]

Amount of molecules per component :
-------------------------------------------------------------------------------
Component 0 (CO2)
    molecules:      2.500000e+02 molecules  (2.500000e+02 +/- 0.000000e+00)
    number density: 1.503573e-02 molec./A^3 (1.487866e-02 +/- 0.000000e+00)
    density:        1.098536e+03 kg/m^3     (1.087060e+03 +/- 0.000000e+00)

Average pressure tensor: 
-------------------------------------------------------------------------------
 1.9914e+02  5.5889e+01 -6.8988e+00 +/- 0.0000e+00 0.0000e+00 0.0000e+00 [bar]
 5.5889e+01  2.5722e+02  1.8509e+01 +/- 0.0000e+00 0.0000e+00 0.0000e+00 [bar]
-6.8988e+00  1.8509e+01  2.5140e+02 +/- 0.0000e+00 0.0000e+00 0.0000e+00 [bar]
Ideal-gas pressure:   5.135556e+02 +/ 0.000000e+00 [bar]
Excess pressure:     -2.776341e+02 +/ 0.000000e+00 [bar]
Pressure:             2.359215e+02 +/ 0.000000e+00 [bar]

Total potential energy/kʙ  -3.919715e+05 (-3.909085e+05 +/- 0.000000e+00) [K]
-------------------------------------------------------------------------------
ExternalField-molecule
    Van der Waals/kʙ        0.000000e+00 ( 0.000000e+00 +/- 0.000000e+00) [K]
Framework-molecule
    Van der Waals/kʙ        0.000000e+00 ( 0.000000e+00 +/- 0.000000e+00) [K]
    Van der Waals (Tail)/kʙ 0.000000e+00 ( 0.000000e+00 +/- 0.000000e+00) [K]
    Coulombic Real/kʙ       0.000000e+00 ( 0.000000e+00 +/- 0.000000e+00) [K]
    Coulombic Fourier/kʙ    0.000000e+00 ( 0.000000e+00 +/- 0.000000e+00) [K]
Molecule-molecule
    Van der Waals/kʙ       -2.853026e+05 (-2.781480e+05 +/- 0.000000e+00) [K]
    Van der Waals (Tail)/kʙ-1.206072e+04 (-1.194864e+04 +/- 0.000000e+00) [K]
    Coulombic Real/kʙ      -7.433251e+04 (-8.098556e+04 +/- 0.000000e+00) [K]
    Coulombic Fourier/kʙ   -2.027563e+04 (-1.982628e+04 +/- 0.000000e+00) [K]
    Molecule Intra/kʙ       0.000000e+00 ( 0.000000e+00 +/- 0.000000e+00) [K]

Current cycle: 1500 out of 5000
===============================================================================

Box:      25.69567   0.00000   0.00000  Average:  25.61596   0.00000   0.00000
           0.00000  25.69567   0.00000             0.00000  25.61596   0.00000
           0.00000   0.00000  25.69567             0.00000   0.00000  25.61596
Lengths:  25.69567  25.69567  25.69567  Average:  25.61596  25.61596  25.61596
Angles:   90.00000  90.00000  90.00000  Average:  90.00000  90.00000  90.00000
Rectangular boundary conditions

net charge:   0.00000000

component 0 (CO2) lambda:  0 occupancy:  1 (1.000000)
    net charge:   0.00000000 [e]

Amount of molecules per component :
-------------------------------------------------------------------------------
Component 0 (CO2)
    molecules:      2.500000e+02 molecules  (2.500000e+02 +/- 0.000000e+00)
    number density: 1.473534e-02 molec./A^3 (1.487870e-02 +/- 0.000000e+00)
    density:        1.076589e+03 kg/m^3     (1.087063e+03 +/- 0.000000e+00)

Average pressure tensor: 
-------------------------------------------------------------------------------
 2.0202e+02  4.9142e+01 -7.0670e+00 +/- 0.0000e+00 0.0000e+00 0.0000e+00 [bar]
 4.9142e+01  2.6842e+02  2.1476e+01 +/- 0.0000e+00 0.0000e+00 0.0000e+00 [bar]
-7.0670e+00  2.1476e+01  2.6798e+02 +/- 0.0000e+00 0.0000e+00 0.0000e+00 [bar]
Ideal-gas pressure:   5.135570e+02 +/ 0.000000e+00 [bar]
Excess pressure:     -2.674149e+02 +/ 0.000000e+00 [bar]
Pressure:             2.461421e+02 +/ 0.000000e+00 [bar]

Total potential energy/kʙ  -3.922091e+05 (-3.907140e+05 +/- 0.000000e+00) [K]
-------------------------------------------------------------------------------
ExternalField-molecule
    Van der Waals/kʙ        0.000000e+00 ( 0.000000e+00 +/- 0.000000e+00) [K]
Framework-molecule
    Van der Waals/kʙ        0.000000e+00 ( 0.000000e+00 +/- 0.000000e+00) [K]
    Van der Waals (Tail)/kʙ 0.000000e+00 ( 0.000000e+00 +/- 0.000000e+00) [K]
    Coulombic Real/kʙ       0.000000e+00 ( 0.000000e+00 +/- 0.000000e+00) [K]
    Coulombic Fourier/kʙ    0.000000e+00 ( 0.000000e+00 +/- 0.000000e+00) [K]
Molecule-molecule
    Van der Waals/kʙ       -2.771415e+05 (-2.779288e+05 +/- 0.000000e+00) [K]
    Van der Waals (Tail)/kʙ-1.181977e+04 (-1.194890e+04 +/- 0.000000e+00) [K]
    Coulombic Real/kʙ      -8.255318e+04 (-8.095621e+04 +/- 0.000000e+00) [K]
    Coulombic Fourier/kʙ   -2.069457e+04 (-1.987999e+04 +/- 0.000000e+00) [K]
    Molecule Intra/kʙ       0.000000e+00 ( 0.000000e+00 +/- 0.000000e+00) [K]

Current cycle: 1600 out of 5000
===============================================================================

Box:      25.54773   0.00000   0.00000  Average:  25.61906   0.00000   0.00000
           0.00000  25.54773   0.00000             0.00000  25.61906   0.00000
           0.00000   0.00000  25.54773             0.00000   0.00000  25.61906
Lengths:  25.54773  25.54773  25.54773  Average:  25.61906  25.61906  25.61906
Angles:   90.00000  90.00000  90.00000  Average:  90.00000  90.00000  90.00000
Rectangular boundary conditions

net charge:   0.00000000

component 0 (CO2) lambda:  0 occupancy:  1 (1.000000)
    net charge:   0.00000000 [e]

Amount of molecules per component :
-------------------------------------------------------------------------------
Component 0 (CO2)
    molecules:      2.500000e+02 molecules  (2.500000e+02 +/- 0.000000e+00)
    number density: 1.499280e-02 molec./A^3 (1.487304e-02 +/- 0.000000e+00)
    density:        1.095400e+03 kg/m^3     (1.086650e+03 +/- 0.000000e+00)

Average pressure tensor: 
-------------------------------------------------------------------------------
 1.8965e+02  5.3459e+01 -1.2153e+01 +/- 0.0000e+00 0.0000e+00 0.0000e+00 [bar]
 5.3459e+01  2.6070e+02  2.4272e+01 +/- 0.0000e+00 0.0000e+00 0.0000e+00 [bar]
-1.2153e+01  2.4272e+01  2.8280e+02 +/- 0.0000e+00 0.0000e+00 0.0000e+00 [bar]
Ideal-gas pressure:   5.133618e+02 +/ 0.000000e+00 [bar]
Excess pressure:     -2.689775e+02 +/ 0.000000e+00 [bar]
Pressure:             2.443843e+02 +/ 0.000000e+00 [bar]

Total potential energy/kʙ  -3.904351e+05 (-3.904457e+05 +/- 0.000000e+00) [K]
-------------------------------------------------------------------------------
ExternalField-molecule
    Van der Waals/kʙ        0.000000e+00 ( 0.000000e+00 +/- 0.000000e+00) [K]
Framework-molecule
    Van der Waals/kʙ        0.000000e+00 ( 0.000000e+00 +/- 0.000000e+00) [K]
    Van der Waals (Tail)/kʙ 0.000000e+00 ( 0.000000e+00 +/- 0.000000e+00) [K]
    Coulombic Real/kʙ       0.000000e+00 ( 0.000000e+00 +/- 0.000000e+00) [K]
    Coulombic Fourier/kʙ    0.000000e+00 ( 0.000000e+00 +/- 0.000000e+00) [K]
Molecule-molecule
    Van der Waals/kʙ       -2.767754e+05 (-2.776834e+05 +/- 0.000000e+00) [K]
    Van der Waals (Tail)/kʙ-1.202629e+04 (-1.194408e+04 +/- 0.000000e+00) [K]
    Coulombic Real/kʙ      -8.087784e+04 (-8.087104e+04 +/- 0.000000e+00) [K]
    Coulombic Fourier/kʙ   -2.075556e+04 (-1.994722e+04 +/- 0.000000e+00) [K]
    Molecule Intra/kʙ       0.000000e+00 ( 0.000000e+00 +/- 0.000000e+00) [K]

Current cycle: 1700 out of 5000
===============================================================================

Box:      25.58563   0.00000   0.00000  Average:  25.61520   0.00000   0.00000
           0.00000  25.58563   0.00000             0.00000  25.61520   0.00000
           0.00000   0.00000  25.58563             0.00000   0.00000  25.61520
Lengths:  25.58563  25.58563  25.58563  Average:  25.61520  25.61520  25.61520
Angles:   90.00000  90.00000  90.00000  Average:  90.00000  90.00000  90.00000
Rectangular boundary conditions

net charge:   0.00000000

component 0 (CO2) lambda:  0 occupancy:  1 (1.000000)
    net charge:   0.00000000 [e]

Amount of molecules per component :
-------------------------------------------------------------------------------
Component 0 (CO2)
    molecules:      2.500000e+02 molecules  (2.500000e+02 +/- 0.000000e+00)
    number density: 1.492628e-02 molec./A^3 (1.487954e-02 +/- 0.000000e+00)
    density:        1.090540e+03 kg/m^3     (1.087125e+03 +/- 0.000000e+00)

Average pressure tensor: 
-------------------------------------------------------------------------------
 1.8846e+02  5.8065e+01 -2.1025e+01 +/- 0.0000e+00 0.0000e+00 0.0000e+00 [bar]
 5.8065e+01  2.5457e+02  1.4839e+01 +/- 0.0000e+00 0.0000e+00 0.0000e+00 [bar]
-2.1025e+01  1.4839e+01  2.8661e+02 +/- 0.0000e+00 0.0000e+00 0.0000e+00 [bar]
Ideal-gas pressure:   5.135860e+02 +/ 0.000000e+00 [bar]
Excess pressure:     -2.703722e+02 +/ 0.000000e+00 [bar]
Pressure:             2.432138e+02 +/ 0.000000e+00 [bar]

Total potential energy/kʙ  -3.946825e+05 (-3.905665e+05 +/- 0.000000e+00) [K]
-------------------------------------------------------------------------------
ExternalField-molecule
    Van der Waals/kʙ        0.000000e+00 ( 0.000000e+00 +/- 0.000000e+00) [K]
Framework-molecule
    Van der Waals/kʙ        0.000000e+00 ( 0.000000e+00 +/- 0.000000e+00) [K]
    Van der Waals (Tail)/kʙ 0.000000e+00 ( 0.000000e+00 +/- 0.000000e+00) [K]
    Coulombic Real/kʙ       0.000000e+00 ( 0.000000e+00 +/- 0.000000e+00) [K]
    Coulombic Fourier/kʙ    0.000000e+00 ( 0.000000e+00 +/- 0.000000e+00) [K]
Molecule-molecule
    Van der Waals/kʙ       -2.813013e+05 (-2.779744e+05 +/- 0.000000e+00) [K]
    Van der Waals (Tail)/kʙ-1.197293e+04 (-1.194814e+04 +/- 0.000000e+00) [K]
    Coulombic Real/kʙ      -8.246513e+04 (-8.072017e+04 +/- 0.000000e+00) [K]
    Coulombic Fourier/kʙ   -1.894317e+04 (-1.992378e+04 +/- 0.000000e+00) [K]
    Molecule Intra/kʙ       0.000000e+00 ( 0.000000e+00 +/- 0.000000e+00) [K]

Current cycle: 1800 out of 5000
===============================================================================

Box:      25.53530   0.00000   0.00000  Average:  25.60709   0.00000   0.00000
           0.00000  25.53530   0.00000             0.00000  25.60709   0.00000
           0.00000   0.00000  25.53530             0.00000   0.00000  25.60709
Lengths:  25.53530  25.53530  25.53530  Average:  25.60709  25.60709  25.60709
Angles:   90.00000  90.00000  90.00000  Average:  90.00000  90.00000  90.00000
Rectangular boundary conditions

net charge:   0.00000000

component 0 (CO2) lambda:  0 occupancy:  1 (1.000000)
    net charge:   0.00000000 [e]

Amount of molecules per component :
-------------------------------------------------------------------------------
Component 0 (CO2)
    molecules:      2.500000e+02 molecules  (2.500000e+02 +/- 0.000000e+00)
    number density: 1.501472e-02 molec./A^3 (1.489361e-02 +/- 0.000000e+00)
    density:        1.097001e+03 kg/m^3     (1.088153e+03 +/- 0.000000e+00)

Average pressure tensor: 
-------------------------------------------------------------------------------
 1.7370e+02  5.1329e+01 -2.4549e+01 +/- 0.0000e+00 0.0000e+00 0.0000e+00 [bar]
 5.1329e+01  2.3059e+02  1.3043e+01 +/- 0.0000e+00 0.0000e+00 0.0000e+00 [bar]
-2.4549e+01  1.3043e+01  2.8991e+02 +/- 0.0000e+00 0.0000e+00 0.0000e+00 [bar]
Ideal-gas pressure:   5.140716e+02 +/ 0.000000e+00 [bar]
Excess pressure:     -2.826717e+02 +/ 0.000000e+00 [bar]
Pressure:             2.313999e+02 +/ 0.000000e+00 [bar]

Total potential energy/kʙ  -3.997646e+05 (-3.910280e+05 +/- 0.000000e+00) [K]
-------------------------------------------------------------------------------
ExternalField-molecule
    Van der Waals/kʙ        0.000000e+00 ( 0.000000e+00 +/- 0.000000e+00) [K]
Framework-molecule
    Van der Waals/kʙ        0.000000e+00 ( 0.000000e+00 +/- 0.000000e+00) [K]
    Van der Waals (Tail)/kʙ 0.000000e+00 ( 0.000000e+00 +/- 0.000000e+00) [K]
    Coulombic Real/kʙ       0.000000e+00 ( 0.000000e+00 +/- 0.000000e+00) [K]
    Coulombic Fourier/kʙ    0.000000e+00 ( 0.000000e+00 +/- 0.000000e+00) [K]
Molecule-molecule
    Van der Waals/kʙ       -2.852860e+05 (-2.782968e+05 +/- 0.000000e+00) [K]
    Van der Waals (Tail)/kʙ-1.204386e+04 (-1.195512e+04 +/- 0.000000e+00) [K]
    Coulombic Real/kʙ      -8.229112e+04 (-8.081818e+04 +/- 0.000000e+00) [K]
    Coulombic Fourier/kʙ   -2.014367e+04 (-1.995792e+04 +/- 0.000000e+00) [K]
    Molecule Intra/kʙ       0.000000e+00 ( 0.000000e+00 +/- 0.000000e+00) [K]

Current cycle: 1900 out of 5000
===============================================================================

Box:      25.55952   0.00000   0.00000  Average:  25.59440   0.00000   0.00000
           0.00000  25.55952   0.00000             0.00000  25.59440   0.00000
           0.00000   0.00000  25.55952             0.00000   0.00000  25.59440
Lengths:  25.55952  25.55952  25.55952  Average:  25.59440  25.59440  25.59440
Angles:   90.00000  90.00000  90.00000  Average:  90.00000  90.00000  90.00000
Rectangular boundary conditions

net charge:   0.00000000

component 0 (CO2) lambda:  0 occupancy:  1 (1.000000)
    net charge:   0.00000000 [e]

Amount of molecules per component :
-------------------------------------------------------------------------------
Component 0 (CO2)
    molecules:      2.500000e+02 molecules  (2.500000e+02 +/- 0.000000e+00)
    number density: 1.497207e-02 molec./A^3 (1.491599e-02 +/- 0.000000e+00)
    density:        1.093885e+03 kg/m^3     (1.089788e+03 +/- 0.000000e+00)

Average pressure tensor: 
-------------------------------------------------------------------------------
 1.7493e+02  4.3964e+01 -3.2737e+01 +/- 0.0000e+00 0.0000e+00 0.0000e+00 [bar]
 4.3964e+01  2.4114e+02  6.9504e+00 +/- 0.0000e+00 0.0000e+00 0.0000e+00 [bar]
-3.2737e+01  6.9504e+00  3.0552e+02 +/- 0.0000e+00 0.0000e+00 0.0000e+00 [bar]
Ideal-gas pressure:   5.148442e+02 +/ 0.000000e+00 [bar]
Excess pressure:     -2.743118e+02 +/ 0.000000e+00 [bar]
Pressure:             2.405325e+02 +/ 0.000000e+00 [bar]

Total potential energy/kʙ  -4.045398e+05 (-3.918416e+05 +/- 0.000000e+00) [K]
-------------------------------------------------------------------------------
ExternalField-molecule
    Van der Waals/kʙ        0.000000e+00 ( 0.000000e+00 +/- 0.000000e+00) [K]
Framework-molecule
    Van der Waals/kʙ        0.000000e+00 ( 0.000000e+00 +/- 0.000000e+00) [K]
    Van der Waals (Tail)/kʙ 0.000000e+00 ( 0.000000e+00 +/- 0.000000e+00) [K]
    Coulombic Real/kʙ       0.000000e+00 ( 0.000000e+00 +/- 0.000000e+00) [K]
    Coulombic Fourier/kʙ    0.000000e+00 ( 0.000000e+00 +/- 0.000000e+00) [K]
Molecule-molecule
    Van der Waals/kʙ       -2.832458e+05 (-2.786931e+05 +/- 0.000000e+00) [K]
    Van der Waals (Tail)/kʙ-1.200966e+04 (-1.197426e+04 +/- 0.000000e+00) [K]
    Coulombic Real/kʙ      -8.895881e+04 (-8.117139e+04 +/- 0.000000e+00) [K]
    Coulombic Fourier/kʙ   -2.032557e+04 (-2.000291e+04 +/- 0.000000e+00) [K]
    Molecule Intra/kʙ       0.000000e+00 ( 0.000000e+00 +/- 0.000000e+00) [K]

Current cycle: 2000 out of 5000
===============================================================================

Box:      25.36841   0.00000   0.00000  Average:  25.58977   0.00000   0.00000
           0.00000  25.36841   0.00000             0.00000  25.58977   0.00000
           0.00000   0.00000  25.36841             0.00000   0.00000  25.58977
Lengths:  25.36841  25.36841  25.36841  Average:  25.58977  25.58977  25.58977
Angles:   90.00000  90.00000  90.00000  Average:  90.00000  90.00000  90.00000
Rectangular boundary conditions

net charge:   0.00000000

component 0 (CO2) lambda:  0 occupancy:  1 (1.000000)
    net charge:   0.00000000 [e]

Amount of molecules per component :
-------------------------------------------------------------------------------
Component 0 (CO2)
    molecules:      2.500000e+02 molecules  (2.500000e+02 +/- 0.000000e+00)
    number density: 1.531300e-02 molec./A^3 (1.492392e-02 +/- 0.000000e+00)
    density:        1.118794e+03 kg/m^3     (1.090367e+03 +/- 0.000000e+00)

Average pressure tensor: 
-------------------------------------------------------------------------------
 1.7358e+02  3.7959e+01 -4.2858e+01 +/- 0.0000e+00 0.0000e+00 0.0000e+00 [bar]
 3.7959e+01  2.2698e+02  2.3799e+00 +/- 0.0000e+00 0.0000e+00 0.0000e+00 [bar]
-4.2858e+01  2.3799e+00  3.0162e+02 +/- 0.0000e+00 0.0000e+00 0.0000e+00 [bar]
Ideal-gas pressure:   5.151180e+02 +/ 0.000000e+00 [bar]
Excess pressure:     -2.810578e+02 +/ 0.000000e+00 [bar]
Pressure:             2.340603e+02 +/ 0.000000e+00 [bar]

Total potential energy/kʙ  -4.010809e+05 (-3.922961e+05 +/- 0.000000e+00) [K]
-------------------------------------------------------------------------------
ExternalField-molecule
    Van der Waals/kʙ        0.000000e+00 ( 0.000000e+00 +/- 0.000000e+00) [K]
Framework-molecule
    Van der Waals/kʙ        0.000000e+00 ( 0.000000e+00 +/- 0.000000e+00) [K]
    Van der Waals (Tail)/kʙ 0.000000e+00 ( 0.000000e+00 +/- 0.000000e+00) [K]
    Coulombic Real/kʙ       0.000000e+00 ( 0.000000e+00 +/- 0.000000e+00) [K]
    Coulombic Fourier/kʙ    0.000000e+00 ( 0.000000e+00 +/- 0.000000e+00) [K]
Molecule-molecule
    Van der Waals/kʙ       -2.811825e+05 (-2.788864e+05 +/- 0.000000e+00) [K]
    Van der Waals (Tail)/kʙ-1.228313e+04 (-1.198107e+04 +/- 0.000000e+00) [K]
    Coulombic Real/kʙ      -8.789870e+04 (-8.141922e+04 +/- 0.000000e+00) [K]
    Coulombic Fourier/kʙ   -1.971657e+04 (-2.000943e+04 +/- 0.000000e+00) [K]
    Molecule Intra/kʙ       0.000000e+00 ( 0.000000e+00 +/- 0.000000e+00) [K]

Current cycle: 2100 out of 5000
===============================================================================

Box:      25.54548   0.00000   0.00000  Average:  25.58373   0.00000   0.00000
           0.00000  25.54548   0.00000             0.00000  25.58373   0.00000
           0.00000   0.00000  25.54548             0.00000   0.00000  25.58373
Lengths:  25.54548  25.54548  25.54548  Average:  25.58373  25.58373  25.58373
Angles:   90.00000  90.00000  90.00000  Average:  90.00000  90.00000  90.00000
Rectangular boundary conditions

net charge:   0.00000000

component 0 (CO2) lambda:  0 occupancy:  1 (1.000000)
    net charge:   0.00000000 [e]

Amount of molecules per component :
-------------------------------------------------------------------------------
Component 0 (CO2)
    molecules:      2.500000e+02 molecules  (2.500000e+02 +/- 0.000000e+00)
    number density: 1.499677e-02 molec./A^3 (1.493440e-02 +/- 0.000000e+00)
    density:        1.095690e+03 kg/m^3     (1.091133e+03 +/- 0.000000e+00)

Average pressure tensor: 
-------------------------------------------------------------------------------
 1.7884e+02  3.5763e+01 -3.3716e+01 +/- 0.0000e+00 0.0000e+00 0.0000e+00 [bar]
 3.5763e+01  2.2638e+02 -5.8303e+00 +/- 0.0000e+00 0.0000e+00 0.0000e+00 [bar]
-3.3716e+01 -5.8303e+00  3.0398e+02 +/- 0.0000e+00 0.0000e+00 0.0000e+00 [bar]
Ideal-gas pressure:   5.154796e+02 +/ 0.000000e+00 [bar]
Excess pressure:     -2.790816e+02 +/ 0.000000e+00 [bar]
Pressure:             2.363979e+02 +/ 0.000000e+00 [bar]

Total potential energy/kʙ  -4.011429e+05 (-3.926953e+05 +/- 0.000000e+00) [K]
-------------------------------------------------------------------------------
ExternalField-molecule
    Van der Waals/kʙ        0.000000e+00 ( 0.000000e+00 +/- 0.000000e+00) [K]
Framework-molecule
    Van der Waals/kʙ        0.000000e+00 ( 0.000000e+00 +/- 0.000000e+00) [K]
    Van der Waals (Tail)/kʙ 0.000000e+00 ( 0.000000e+00 +/- 0.000000e+00) [K]
[...]
    Coulombic Fourier/kʙ    0.000000e+00 ( 0.000000e+00 +/- 0.000000e+00) [K]
Molecule-molecule
    Van der Waals/kʙ       -2.839904e+05 (-2.794244e+05 +/- 1.049865e+03) [K]
    Van der Waals (Tail)/kʙ-1.196066e+04 (-1.199702e+04 +/- 3.550845e+01) [K]
    Coulombic Real/kʙ      -8.206163e+04 (-8.189302e+04 +/- 1.055433e+03) [K]
    Coulombic Fourier/kʙ   -1.848293e+04 (-1.988769e+04 +/- 2.226986e+02) [K]
    Molecule Intra/kʙ       0.000000e+00 ( 0.000000e+00 +/- 0.000000e+00) [K]

Current cycle: 4700 out of 5000
===============================================================================

Box:      25.58640   0.00000   0.00000  Average:  25.57233   0.00000   0.00000
           0.00000  25.58640   0.00000             0.00000  25.57233   0.00000
           0.00000   0.00000  25.58640             0.00000   0.00000  25.57233
Lengths:  25.58640  25.58640  25.58640  Average:  25.57233  25.57233  25.57233
Angles:   90.00000  90.00000  90.00000  Average:  90.00000  90.00000  90.00000
Rectangular boundary conditions

net charge:   0.00000000

component 0 (CO2) lambda:  0 occupancy:  1 (1.000000)
    net charge:   0.00000000 [e]

Amount of molecules per component :
-------------------------------------------------------------------------------
Component 0 (CO2)
    molecules:      2.500000e+02 molecules  (2.500000e+02 +/- 3.944933e-14)
    number density: 1.492494e-02 molec./A^3 (1.495288e-02 +/- 5.567684e-05)
    density:        1.090442e+03 kg/m^3     (1.092483e+03 +/- 4.067845e+00)

Average pressure tensor: 
-------------------------------------------------------------------------------
 1.9818e+02  1.9794e+01 -1.8040e+00 +/- 5.7266e+01 4.5025e+01 6.2675e+01 [bar]
 1.9794e+01  2.5336e+02  2.4859e+01 +/- 4.5025e+01 8.3677e+01 5.6943e+01 [bar]
-1.8040e+00  2.4859e+01  2.2976e+02 +/- 6.2675e+01 5.6943e+01 1.0283e+02 [bar]
Ideal-gas pressure:   5.161175e+02 +/ 1.921756e+00 [bar]
Excess pressure:     -2.890177e+02 +/ 2.894205e+01 [bar]
Pressure:             2.270999e+02 +/ 2.806082e+01 [bar]

Total potential energy/kʙ  -3.879380e+05 (-3.933230e+05 +/- 1.965727e+03) [K]
-------------------------------------------------------------------------------
ExternalField-molecule
    Van der Waals/kʙ        0.000000e+00 ( 0.000000e+00 +/- 0.000000e+00) [K]
Framework-molecule
    Van der Waals/kʙ        0.000000e+00 ( 0.000000e+00 +/- 0.000000e+00) [K]
    Van der Waals (Tail)/kʙ 0.000000e+00 ( 0.000000e+00 +/- 0.000000e+00) [K]
    Coulombic Real/kʙ       0.000000e+00 ( 0.000000e+00 +/- 0.000000e+00) [K]
    Coulombic Fourier/kʙ    0.000000e+00 ( 0.000000e+00 +/- 0.000000e+00) [K]
Molecule-molecule
    Van der Waals/kʙ       -2.819211e+05 (-2.795573e+05 +/- 1.332464e+03) [K]
    Van der Waals (Tail)/kʙ-1.197185e+04 (-1.199959e+04 +/- 3.928945e+01) [K]
    Coulombic Real/kʙ      -7.588768e+04 (-8.190167e+04 +/- 9.752873e+02) [K]
    Coulombic Fourier/kʙ   -1.815741e+04 (-1.986440e+04 +/- 2.662153e+02) [K]
    Molecule Intra/kʙ       0.000000e+00 ( 0.000000e+00 +/- 0.000000e+00) [K]

Current cycle: 4800 out of 5000
===============================================================================

Box:      25.74195   0.00000   0.00000  Average:  25.57462   0.00000   0.00000
           0.00000  25.74195   0.00000             0.00000  25.57462   0.00000
           0.00000   0.00000  25.74195             0.00000   0.00000  25.57462
Lengths:  25.74195  25.74195  25.74195  Average:  25.57462  25.57462  25.57462
Angles:   90.00000  90.00000  90.00000  Average:  90.00000  90.00000  90.00000
Rectangular boundary conditions

net charge:   0.00000000

component 0 (CO2) lambda:  0 occupancy:  1 (1.000000)
    net charge:   0.00000000 [e]

Amount of molecules per component :
-------------------------------------------------------------------------------
Component 0 (CO2)
    molecules:      2.500000e+02 molecules  (2.500000e+02 +/- 0.000000e+00)
    number density: 1.465601e-02 molec./A^3 (1.494887e-02 +/- 4.865171e-05)
    density:        1.070793e+03 kg/m^3     (1.092190e+03 +/- 3.554577e+00)

Average pressure tensor: 
-------------------------------------------------------------------------------
 1.9619e+02  1.7993e+01 -1.5129e+00 +/- 5.6635e+01 4.3330e+01 6.2616e+01 [bar]
 1.7993e+01  2.5425e+02  2.4390e+01 +/- 4.3330e+01 8.3849e+01 5.5920e+01 [bar]
-1.5129e+00  2.4390e+01  2.2463e+02 +/- 6.2616e+01 5.5920e+01 1.0910e+02 [bar]
Ideal-gas pressure:   5.159789e+02 +/ 1.679275e+00 [bar]
Excess pressure:     -2.909554e+02 +/ 3.111446e+01 [bar]
Pressure:             2.250234e+02 +/ 3.037451e+01 [bar]

Total potential energy/kʙ  -3.833743e+05 (-3.932063e+05 +/- 1.491558e+03) [K]
-------------------------------------------------------------------------------
ExternalField-molecule
    Van der Waals/kʙ        0.000000e+00 ( 0.000000e+00 +/- 0.000000e+00) [K]
Framework-molecule
    Van der Waals/kʙ        0.000000e+00 ( 0.000000e+00 +/- 0.000000e+00) [K]
    Van der Waals (Tail)/kʙ 0.000000e+00 ( 0.000000e+00 +/- 0.000000e+00) [K]
    Coulombic Real/kʙ       0.000000e+00 ( 0.000000e+00 +/- 0.000000e+00) [K]
    Coulombic Fourier/kʙ    0.000000e+00 ( 0.000000e+00 +/- 0.000000e+00) [K]
Molecule-molecule
    Van der Waals/kʙ       -2.739120e+05 (-2.795234e+05 +/- 1.171478e+03) [K]
    Van der Waals (Tail)/kʙ-1.175613e+04 (-1.199605e+04 +/- 3.334882e+01) [K]
    Coulombic Real/kʙ      -7.915832e+04 (-8.184688e+04 +/- 7.433962e+02) [K]
    Coulombic Fourier/kʙ   -1.854780e+04 (-1.983995e+04 +/- 3.113269e+02) [K]
    Molecule Intra/kʙ       0.000000e+00 ( 0.000000e+00 +/- 0.000000e+00) [K]

Current cycle: 4900 out of 5000
===============================================================================

Box:      25.84630   0.00000   0.00000  Average:  25.57648   0.00000   0.00000
           0.00000  25.84630   0.00000             0.00000  25.57648   0.00000
           0.00000   0.00000  25.84630             0.00000   0.00000  25.57648
Lengths:  25.84630  25.84630  25.84630  Average:  25.57648  25.57648  25.57648
Angles:   90.00000  90.00000  90.00000  Average:  90.00000  90.00000  90.00000
Rectangular boundary conditions

net charge:   0.00000000

component 0 (CO2) lambda:  0 occupancy:  1 (1.000000)
    net charge:   0.00000000 [e]

Amount of molecules per component :
-------------------------------------------------------------------------------
Component 0 (CO2)
    molecules:      2.500000e+02 molecules  (2.500000e+02 +/- 0.000000e+00)
    number density: 1.447920e-02 molec./A^3 (1.494558e-02 +/- 4.679712e-05)
    density:        1.057875e+03 kg/m^3     (1.091950e+03 +/- 3.419078e+00)

Average pressure tensor: 
-------------------------------------------------------------------------------
 1.9381e+02  1.6205e+01  1.3729e+00 +/- 5.6980e+01 4.2885e+01 6.2956e+01 [bar]
 1.6205e+01  2.5610e+02  2.3425e+01 +/- 4.2885e+01 8.4832e+01 5.4967e+01 [bar]
 1.3729e+00  2.3425e+01  2.2643e+02 +/- 6.2956e+01 5.4967e+01 1.0263e+02 [bar]
Ideal-gas pressure:   5.158655e+02 +/ 1.615262e+00 [bar]
Excess pressure:     -2.904171e+02 +/ 2.980719e+01 [bar]
Pressure:             2.254484e+02 +/ 2.923367e+01 [bar]

Total potential energy/kʙ  -3.802850e+05 (-3.930834e+05 +/- 1.166894e+03) [K]
-------------------------------------------------------------------------------
ExternalField-molecule
    Van der Waals/kʙ        0.000000e+00 ( 0.000000e+00 +/- 0.000000e+00) [K]
Framework-molecule
    Van der Waals/kʙ        0.000000e+00 ( 0.000000e+00 +/- 0.000000e+00) [K]
    Van der Waals (Tail)/kʙ 0.000000e+00 ( 0.000000e+00 +/- 0.000000e+00) [K]
    Coulombic Real/kʙ       0.000000e+00 ( 0.000000e+00 +/- 0.000000e+00) [K]
    Coulombic Fourier/kʙ    0.000000e+00 ( 0.000000e+00 +/- 0.000000e+00) [K]
Molecule-molecule
    Van der Waals/kʙ       -2.665411e+05 (-2.794694e+05 +/- 1.026056e+03) [K]
    Van der Waals (Tail)/kʙ-1.161431e+04 (-1.199345e+04 +/- 3.233086e+01) [K]
    Coulombic Real/kʙ      -8.368250e+04 (-8.180459e+04 +/- 6.101291e+02) [K]
    Coulombic Fourier/kʙ   -1.844707e+04 (-1.981598e+04 +/- 3.511068e+02) [K]
    Molecule Intra/kʙ       0.000000e+00 ( 0.000000e+00 +/- 0.000000e+00) [K]


Energy statistics             |  Energy [K]   | Recomputed [K]|  Drift [K]    |
===============================================================================
Total potential energy/kʙ     | -3.928926e+05 | -3.928926e+05 | -2.021474e-09 |
    external field VDW/kʙ     |  0.000000e+00 |  0.000000e+00 |  0.000000e+00 |
    external field Real/kʙ    |  0.000000e+00 |  0.000000e+00 |  0.000000e+00 |
    framework-molecule VDW/kʙ |  0.000000e+00 |  0.000000e+00 |  0.000000e+00 |
    framework-molecule Real/kʙ|  0.000000e+00 |  0.000000e+00 |  0.000000e+00 |
    molecule-molecule VDW/kʙ  | -2.791132e+05 | -2.791132e+05 | -2.205245e-09 |
    molecule-molecule Real/kʙ | -8.175608e+04 | -8.175608e+04 |  1.750194e-10 |
    Van der Waals (Tail)/kʙ   | -1.187984e+04 | -1.187984e+04 |  0.000000e+00 |
    Ewald Fourier/kʙ          |  1.618358e+04 |  1.618358e+04 |  8.750971e-12 |
    Ewald self/kʙ             | -5.557308e+06 | -5.557308e+06 |  0.000000e+00 |
    Ewald exclusion/kʙ        |  5.520981e+06 |  5.520981e+06 |  0.000000e+00 |
    intra VDW/kʙ              |  0.000000e+00 |  0.000000e+00 |  0.000000e+00 |
    intra Coulombic/kʙ        |  0.000000e+00 |  0.000000e+00 |  0.000000e+00 |
    polarization/kʙ           |  0.000000e+00 |  0.000000e+00 |  0.000000e+00 |
    dU/dlambda VDW/kʙ         |  0.000000e+00 |  0.000000e+00 |  0.000000e+00 |
    dU/dlambda Real/kʙ        |  0.000000e+00 |  0.000000e+00 |  0.000000e+00 |
    dU/dlambda Ewald/kʙ       |  0.000000e+00 |  0.000000e+00 |  0.000000e+00 |
-------------------------------------------------------------------------------


Monte-Carlo moves statistics
===============================================================================

    Volume change        all:                8464
    Volume change        total:              8464
    Volume change        constructed:        8464
    Volume change        accepted:           4214
    Volume change        fraction:       0.497873
    Volume change        max-change:     0.025000

Component 0 [CO2]
    Reinsertion (CBMC)   all:              413014
    Reinsertion (CBMC)   total:            413014
    Reinsertion (CBMC)   constructed:      355699
    Reinsertion (CBMC)   accepted:           3618
    Reinsertion (CBMC)   fraction:       0.008760
    Reinsertion (CBMC)   max-change:     0.000000

    Translation          all:              415119
    Translation          total:            138197     138534     138388
    Translation          constructed:      138197     138533     138388
    Translation          accepted:          60413      58301      73762
    Translation          fraction:       0.437151   0.420843   0.533009
    Translation          max-change:     0.779124   0.810916   0.576923

    Rotation             all:              413403
    Rotation             total:            137607     137572     138224
    Rotation             constructed:      137604     137542     138192
    Rotation             accepted:          57733      52414      54109
    Rotation             fraction:       0.419550   0.380993   0.391459
    Rotation             max-change:     0.869565   0.998110   0.957265



Production run counting of the MC moves summed over systems and components
===============================================================================

Volume change                          8464 (0.6771 [%])
Reinsertion (CBMC)                   413014 (33.0411 [%])
Translation                          415119 (33.2095 [%])
Rotation                             413403 (33.0722 [%])

Production count MC-steps:          1250000 [-]
               All summed:          1250000 [-]
               difference:                0 [-]


Production run CPU timings of the MC moves
===============================================================================

Component 0 CO2

Rotation                             63.605974 [s]
    Ewald                            31.998908 [s]
    ExternalField-Molecule            0.015075 [s]
    Framework-Molecule                0.015658 [s]
    Molecule-Molecule                29.412797 [s]
    Overhead                          2.163536 [s]

Reinsertion (CBMC)                  220.096225 [s]
    Ewald                            26.913423 [s]
    NonEwald                        192.775337 [s]
    Overhead                          0.407465 [s]

Translation                          63.586722 [s]
    Ewald                            31.167378 [s]
    ExternalField-Molecule            0.015225 [s]
    Framework-Molecule                0.028273 [s]
    Molecule-Molecule                29.983632 [s]
    Overhead                          2.392214 [s]



Volume change                         74.293641 [s]
    Ewald                             30.508481 [s]
    NonEwald                          40.953286 [s]
    Tail                               2.479736 [s]

Property sampling                     0.303957 [s]
Energy/pressure sampling:             9.012784 [s]


Production run CPU timings of the MC moves summed over systems and components
===============================================================================


Translation                          63.586722 [s]
    Ewald                            31.167378 [s]
    ExternalField-Molecule            0.015225 [s]
    Framework-Molecule                0.028273 [s]
    Molecule-Molecule                29.983632 [s]
    Overhead                          2.392214 [s]

Rotation                             63.605974 [s]
    Ewald                            31.998908 [s]
    ExternalField-Molecule            0.015075 [s]
    Framework-Molecule                0.015658 [s]
    Molecule-Molecule                29.412797 [s]
    Overhead                          2.163536 [s]

Volume change                        74.293641 [s]
    Ewald                            30.508481 [s]
    NonEwald                         40.953286 [s]
    Tail                              2.479736 [s]
    Overhead                          0.352138 [s]

Reinsertion (CBMC)                  220.096225 [s]
    Ewald                            26.913423 [s]
    NonEwald                        192.775337 [s]
    Overhead                          0.407465 [s]

Property sampling:                    0.303957 [s]
Energy/pressure sampling:             9.012784 [s]

Production simulation time:         431.904031 [s]
                All summed:         430.899303 [s]
                  Overhead:           1.004728 [s]


Initalization simulation time:       83.853745 [s]
Equilibration simulation time:        0.000000 [s]
Production simulation time:         431.904031 [s]
Total simulation time:              515.757776 [s]


Energy averages and statistics:
===============================================================================

Framework-molecule energy:
-------------------------------------------------------------------------------



Framework-molecule energy contributions per energy type:
-------------------------------------------------------------------------------



Inter-molecular energy:
-------------------------------------------------------------------------------

    Inter-molecular energy/kʙ 0-0 [CO2-CO2]:
    ---------------------------------------------------------------------------
        Block[  0] -3.915856e+05
        Block[  1] -3.929188e+05
        Block[  2] -3.934204e+05
        Block[  3] -3.935156e+05
        Block[  4] -3.929933e+05
        -----------------------------------------------------------------------
        Average  -3.928867e+05 +/-  9.587218e+02 [K]



Inter-molecular energy contributions per energy type:
-------------------------------------------------------------------------------

    Van der Waals energy/kʙ 0-0 [CO2-CO2]:
    ---------------------------------------------------------------------------
        Block[  0] -2.780857e+05
        Block[  1] -2.796641e+05
        Block[  2] -2.797712e+05
        Block[  3] -2.796124e+05
        Block[  4] -2.795470e+05
        -----------------------------------------------------------------------
        Average  -2.793361e+05 +/-  8.736923e+02 [K]

    VDW Tail-Correction energy/kʙ 0-0 [CO2-CO2]:
    ---------------------------------------------------------------------------
        Block[  0] -1.195447e+04
        Block[  1] -1.200466e+04
        Block[  2] -1.198930e+04
        Block[  3] -1.202586e+04
        Block[  4] -1.196757e+04
        -----------------------------------------------------------------------
        Average  -1.198837e+04 +/-  3.540472e+01 [K]

    Coulomb Real energy/kʙ 0-0 [CO2-CO2]:
    ---------------------------------------------------------------------------
        Block[  0] -8.170542e+04
        Block[  1] -8.106822e+04
        Block[  2] -8.185915e+04
        Block[  3] -8.204455e+04
        Block[  4] -8.209853e+04
        -----------------------------------------------------------------------
        Average  -8.175517e+04 +/-  5.144296e+02 [K]

    Coulomb Fourier energy/kʙ 0-0 [CO2-CO2]:
    ---------------------------------------------------------------------------
        Block[  0] -1.984001e+04
        Block[  1] -2.018177e+04
        Block[  2] -1.980079e+04
        Block[  3] -1.983279e+04
        Block[  4] -1.938017e+04
        -----------------------------------------------------------------------
        Average  -1.980711e+04 +/-  3.535588e+02 [K]


Total energy/kʙ
-------------------------------------------------------------------------------
    Block[  0] -3.915856e+05
    Block[  1] -3.929188e+05
    Block[  2] -3.934204e+05
    Block[  3] -3.935156e+05
    Block[  4] -3.929933e+05
    ---------------------------------------------------------------------------
    Average  -3.928867e+05 +/-  9.587218e+02 [K]

Pressure averages and statistics:
===============================================================================

Average pressure tensor: 
-------------------------------------------------------------------------------
 1.9285e+02  1.4913e+01  1.4609e+00 +/- 5.7259e+01 4.3020e+01 6.2922e+01 [bar]
 1.4913e+01  2.5662e+02  2.5445e+01 +/- 4.3020e+01 8.4663e+01 5.6049e+01 [bar]
 1.4609e+00  2.5445e+01  2.2337e+02 +/- 6.2922e+01 5.6049e+01 1.0485e+02 [bar]

    Block[  0]  5.136677e+07
    Block[  1]  5.165549e+07
    Block[  2]  5.160841e+07
    Block[  3]  5.170506e+07
    Block[  4]  5.147704e+07
    ---------------------------------------------------------------------------
    Ideal gas pressure   5.156256e+07 +/-  1.035212e-02 [Pa]
                         5.156256e+02 +/-  1.719011e+00 [bar]


    Block[  0] -2.629156e+07
    Block[  1] -2.988097e+07
    Block[  2] -3.165219e+07
    Block[  3] -2.679739e+07
    Block[  4] -3.105067e+07
    ---------------------------------------------------------------------------
    Excess pressure  -2.913455e+07 +/-  3.048050e+06 [Pa]
                     -2.913455e+02 +/-  3.048050e+01 [bar]


    Block[  0]  2.507521e+07
    Block[  1]  2.177452e+07
    Block[  2]  1.995622e+07
    Block[  3]  2.490768e+07
    Block[  4]  2.042637e+07
    ---------------------------------------------------------------------------
    Pressure average   2.242800e+07 +/-  3.021877e+06 [Pa]
                       2.242800e+02 +/-  3.021877e+01 [bar]


Enthalpy of adsorption
===============================================================================

No fluctuating components present.


Densities
===============================================================================

Component 0 (CO2)
    Block[  0] 250
    Block[  1] 250
    Block[  2] 250
    Block[  3] 250
    Block[  4] 250
    -----------------------------------------------------------------------
    Density average   2.500000e+02 +/-  0.000000e+00 [molecules]
    Density average   1.493863e-02 +/-  4.980294e-05 [molec/A^3]
    Density average   1.091442e+03 +/-  3.638688e+00 [kg.m⁻³]

