Compiler and run-time data
===============================================================================
RASPA 3.0.4

Random seed: 1146427608

Compiled as a 64-bits application
Compiler: gcc Ubuntu Clang 18.1.3 (1ubuntu1)
Compile Date = Mar 15 2025, Compile Time = 19:39:45

2025-06-02 13:21:36.143917
Simulation started on Mon, Jun 02
The start time was 13:21:00

Hostname:    c062
OS type:     Linux on x86_64
OS release:  6.8.0-58-generic
OS version:  #60-Ubuntu SMP PREEMPT_DYNAMIC Fri Mar 14 18:29:48 UTC 2025


Mutual consistent basic set of units:
===============================================================================

Unit of temperature: 1 [K]
Unit of length:      1e-10 [m]
Unit of time:        1e-12 [s]
Unit of mass:        1.6605402e-27 [kg]
Unit of charge:      1.60217733e-19 [C/particle]


Boltzmann constant (internal units):          0.8314464919307584 [-]
represents conversion from energy (internal units) to temperature (in Kelvin)

Derived units and their conversion factors:
===============================================================================

Unit of energy:                           1.6605402000000002e-23 [J]
Unit of energy:                           10.000008872307538 [J.mol⁻¹]
Unit of velocity:                         100 [m.s⁻¹]
Unit of force:                            1.6605402000000002e-13 [N]
Unit of diffusion:                        1.0000000000000002e-08 [m².s⁻¹]
Unit of acceleration:                     1.0000000000000002e-08 [m².s⁻¹]
Unit of torque:                           1.6605402000000002e-23 [N.m]
Unit of pressure:                         16605402 [Pa]
Unit of volume:                           1e-30 [m³]
Unit of density:                          1660.5402 [kg.m⁻³]
Unit of dynamic viscosity:                1.6605401999999997e-05 [N.s.m⁻²]
Unit of enthalpy:                         1.6605402000000002e-23 [J]
Unit of polarizability:                   1.5458657349975198e-35 [-]
Unit of Coulomb potential:                167101.08000665612 [K]
Unit of dielectric constant:              1.5458657349975193e-05 [s².C².kg⁻¹.m⁻³]
Unit of dipole moment:                    1.60217733e-29 [C.m]
Unit of Debye:                            4.803206799099162 [C.m]
Unit of electric potential:               0.00010364272224473431 [V]
Unit of electric field:                   1036427.222447343 [V.m⁻¹]
Unit of isothermal compressibility:       6.02213665167516e-08 [Pa⁻¹]
Unit of heat capacity:                    10.000008872307538 [J.mol⁻¹.K⁻¹]
Unit of volumetric expansion coefficient: 1 [K⁻¹]


Internal conversion factors:
===============================================================================

Energy (internal units) to Kelvin:      1.202724284692786 [-]
Kelvin to energy (internal units):      0.8314457542157567 [-]


System definitions
===============================================================================

Temperature:          250 [K]
Beta:                 0.0048108928702210625 [-]
Pressure:             1.8e+07 [Pa]
Helium void fraction: 1 [-]

Box:      30.00000   0.00000   0.00000
           0.00000  30.00000   0.00000
           0.00000   0.00000  30.00000
Lengths:  30.00000  30.00000  30.00000
Angles:   90.00000  90.00000  90.00000
Rectangular boundary conditions



Property measurement settings
===============================================================================




Pseudo-atoms
===============================================================================

  0 - C_co2    framework-atom: false
  1 - O_co2    framework-atom: false

  0 - C_co2    mass: 12.00000, charge:  0.70000
  1 - O_co2    mass: 15.99940, charge: -0.35000

  0 - C_co2    polarizability:  0.00000
  1 - O_co2    polarizability:  0.00000

  0 - J. J. Potoff et al., AIChE J. 2001, 47, 1676–1682.
  1 - J. J. Potoff et al., AIChE J. 2001, 47, 1676–1682.

Force field status
===============================================================================

Cutoff Framework-Molecule VDW:  11.00000 [Å]
Cutoff Molecule-Molecule VDW:   11.00000 [Å]
Cutoff Coulomb:                 11.00000 [Å]

Overlap-criteria VDW:           1.000000e+05 [K]

C_co2    - C_co2    Lennard-Jones p₀/kʙ:  27.00000 [K], p₁:  2.80000 [Å]
                                  shift:   0.00000 [K], tailcorrections: true
C_co2    - O_co2    Lennard-Jones p₀/kʙ:  46.18441 [K], p₁:  2.92500 [Å]
                                  shift:   0.00000 [K], tailcorrections: true
O_co2    - O_co2    Lennard-Jones p₀/kʙ:  79.00000 [K], p₁:  3.05000 [Å]
                                  shift:   0.00000 [K], tailcorrections: true

Ewald precision: 1e-06
Ewald alpha: 0.2903408740940883
Ewald k-vectors: 9 9 9


Component definitions
===============================================================================

Component 0 [CO2]

    Type: Adsorbate

    Critical temperature:  304.1282 [K]
    Critical pressure:     7377300 [Pa]
    Acentric factor:       0.22394 [-]

    Mol-fraction:                 1 [-]
    Swappable:                   false

    Mass:                         43.9988 [-]
    Bulk fluid density:           0 [-]
    Compressibility:              0 [-]
    Excess molecules:             0 [-]

    Number Of Atoms:    3
    CBMC starting bead: 0
      0: O_co2  position  0.00000 -0.00000  1.16000, charge -0.35000
      1: C_co2  position  0.00000 -0.00000  0.00000, charge  0.70000
      2: O_co2  position  0.00000 -0.00000 -1.16000, charge -0.35000
    Diagonalized inertia-vector:      43.05758528 43.05758528 0.00000000
    Translational degrees of freedom: 3
    Rotational degrees of freedom:    2
    Shape of the molecule is: 'Linear'
    Net-charge:        0.00000000 [e]

    Move probabilities:
    Translation:                   0.331126 [-]
    Random translation:            0.000000 [-]
    Rotation:                      0.331126 [-]
    Random rotation:               0.000000 [-]
    Volume change:                 0.006623 [-]
    Reinsertion (CBMC):            0.331126 [-]
    Identity change (CBMC):        0.000000 [-]
    Swap:                          0.000000 [-]
    Swap (CBMC):                   0.000000 [-]
    Swap (CFCMC):                  0.000000 [-]
    Swap (CB/CFCMC):               0.000000 [-]
    Gibbs volume:                  0.000000 [-]
    Gibbs swap (CBMC):             0.000000 [-]
    Gibbs swap (CFCMC):            0.000000 [-]
    Widom:                         0.000000 [-]
    Widom (CFCMC):                 0.000000 [-]
    Widom (CB/CFCMC):              0.000000 [-]
    Parallel tempering:            0.000000 [-]
    Hybrid MC:                     0.000000 [-]

    number of blocking-pockets: 0

    number of bonds: 0





Number of pseudo-atoms
===============================================================================

Component   0 (CO2)
-------------------------------------------------------------------------------
    index   0 (C_co2): 200 atoms
    index   1 (O_co2): 400 atoms

Total number of pseudo-atoms:
-------------------------------------------------------------------------------
    index   0 (C_co2): 200 atoms
    index   1 (O_co2): 400 atoms




Energy status Recomputed from scratch
===============================================================================

Total potential energy/kʙ       -9.294310e+04 [K]
    external field VDW/kʙ        0.000000e+00 [K]
    external field Real/kʙ       0.000000e+00 [K]
    framework-molecule VDW/kʙ    0.000000e+00 [K]
    framework-molecule Real/kʙ   0.000000e+00 [K]
    molecule-molecule VDW/kʙ    -7.299079e+04 [K]
    molecule-molecule Real/kʙ   -1.449143e+04 [K]
    Van der Waals (Tail)/kʙ     -3.571688e+03 [K]
    Ewald Fourier/kʙ             1.626391e+04 [K]
    Ewald self/kʙ               -4.023739e+06 [K]
    Ewald exclusion/kʙ           4.005586e+06 [K]
    intra VDW/kʙ                 0.000000e+00 [K]
    intra Coulombic/kʙ           0.000000e+00 [K]
    polarization/kʙ              0.000000e+00 [K]
    dU/dlambda VDW/kʙ            0.000000e+00 [K]
    dU/dlambda Real/kʙ           0.000000e+00 [K]
    dU/dlambda Ewald/kʙ          0.000000e+00 [K]





Initialization: Current cycle: 0 out of 1000
===============================================================================

Box:      30.00000   0.00000   0.00000
           0.00000  30.00000   0.00000
           0.00000   0.00000  30.00000
Lengths:  30.00000  30.00000  30.00000
Angles:   90.00000  90.00000  90.00000
Rectangular boundary conditions

net charge:   0.00000000

component   0 (CO2) lambda:  0 occupancy:  1 (1.000000)
    net charge:   0.00000000 [e]

Amount of molecules per component :
-------------------------------------------------------------------------------
Component 0 (CO2)
    molecules:         2.000000e+02 molecules
    number density:    7.407407e-03 molec/A^3
    density:           5.411979e+02 kg/m^3

Total potential energy/kʙ       -1.316692e+05 [K]
-------------------------------------------------------------------------------
    external field VDW/kʙ        0.000000e+00 [K]
    external field Real/kʙ       0.000000e+00 [K]
    framework-molecule VDW/kʙ    0.000000e+00 [K]
    framework-molecule Real/kʙ   0.000000e+00 [K]
    molecule-molecule VDW/kʙ    -1.027234e+05 [K]
    molecule-molecule Real/kʙ   -2.235566e+04 [K]
    Van der Waals (Tail)/kʙ     -3.571688e+03 [K]
    Ewald Fourier/kʙ             1.513463e+04 [K]
    Ewald self/kʙ               -4.023739e+06 [K]
    Ewald exclusion/kʙ           4.005586e+06 [K]
    intra VDW/kʙ                 0.000000e+00 [K]
    intra Coulombic/kʙ           0.000000e+00 [K]
    polarization/kʙ              0.000000e+00 [K]
    dU/dlambda VDW/kʙ            0.000000e+00 [K]
    dU/dlambda Real/kʙ           0.000000e+00 [K]
    dU/dlambda Ewald/kʙ          0.000000e+00 [K]


Initialization: Current cycle: 100 out of 1000
===============================================================================

Box:      25.92474   0.00000   0.00000
           0.00000  25.92474   0.00000
           0.00000   0.00000  25.92474
Lengths:  25.92474  25.92474  25.92474
Angles:   90.00000  90.00000  90.00000
Rectangular boundary conditions

net charge:   0.00000000

component   0 (CO2) lambda:  0 occupancy:  1 (1.000000)
    net charge:   0.00000000 [e]

Amount of molecules per component :
-------------------------------------------------------------------------------
Component 0 (CO2)
    molecules:         2.000000e+02 molecules
    number density:    1.147855e-02 molec/A^3
    density:           8.386423e+02 kg/m^3

Total potential energy/kʙ       -2.393400e+05 [K]
-------------------------------------------------------------------------------
    external field VDW/kʙ        0.000000e+00 [K]
    external field Real/kʙ       0.000000e+00 [K]
    framework-molecule VDW/kʙ    0.000000e+00 [K]
    framework-molecule Real/kʙ   0.000000e+00 [K]
    molecule-molecule VDW/kʙ    -1.791393e+05 [K]
    molecule-molecule Real/kʙ   -4.665180e+04 [K]
    Van der Waals (Tail)/kʙ     -5.534702e+03 [K]
    Ewald Fourier/kʙ             1.013890e+04 [K]
    Ewald self/kʙ               -4.023739e+06 [K]
    Ewald exclusion/kʙ           4.005586e+06 [K]
    intra VDW/kʙ                 0.000000e+00 [K]
    intra Coulombic/kʙ           0.000000e+00 [K]
    polarization/kʙ              0.000000e+00 [K]
    dU/dlambda VDW/kʙ            0.000000e+00 [K]
    dU/dlambda Real/kʙ           0.000000e+00 [K]
    dU/dlambda Ewald/kʙ          0.000000e+00 [K]


Initialization: Current cycle: 200 out of 1000
===============================================================================

Box:      25.08804   0.00000   0.00000
           0.00000  25.08804   0.00000
           0.00000   0.00000  25.08804
Lengths:  25.08804  25.08804  25.08804
Angles:   90.00000  90.00000  90.00000
Rectangular boundary conditions

net charge:   0.00000000

component   0 (CO2) lambda:  0 occupancy:  1 (1.000000)
    net charge:   0.00000000 [e]

Amount of molecules per component :
-------------------------------------------------------------------------------
Component 0 (CO2)
    molecules:         2.000000e+02 molecules
    number density:    1.266571e-02 molec/A^3
    density:           9.253785e+02 kg/m^3

Total potential energy/kʙ       -2.649598e+05 [K]
-------------------------------------------------------------------------------
    external field VDW/kʙ        0.000000e+00 [K]
    external field Real/kʙ       0.000000e+00 [K]
    framework-molecule VDW/kʙ    0.000000e+00 [K]
    framework-molecule Real/kʙ   0.000000e+00 [K]
    molecule-molecule VDW/kʙ    -1.896304e+05 [K]
    molecule-molecule Real/kʙ   -5.983589e+04 [K]
    Van der Waals (Tail)/kʙ     -6.107125e+03 [K]
    Ewald Fourier/kʙ             8.766729e+03 [K]
    Ewald self/kʙ               -4.023739e+06 [K]
    Ewald exclusion/kʙ           4.005586e+06 [K]
    intra VDW/kʙ                 0.000000e+00 [K]
    intra Coulombic/kʙ           0.000000e+00 [K]
    polarization/kʙ              0.000000e+00 [K]
    dU/dlambda VDW/kʙ            0.000000e+00 [K]
    dU/dlambda Real/kʙ           0.000000e+00 [K]
    dU/dlambda Ewald/kʙ          0.000000e+00 [K]


Initialization: Current cycle: 300 out of 1000
===============================================================================

Box:      24.21279   0.00000   0.00000
           0.00000  24.21279   0.00000
           0.00000   0.00000  24.21279
Lengths:  24.21279  24.21279  24.21279
Angles:   90.00000  90.00000  90.00000
Rectangular boundary conditions

net charge:   0.00000000

component   0 (CO2) lambda:  0 occupancy:  1 (1.000000)
    net charge:   0.00000000 [e]

Amount of molecules per component :
-------------------------------------------------------------------------------
Component 0 (CO2)
    molecules:         2.000000e+02 molecules
    number density:    1.408950e-02 molec/A^3
    density:           1.029403e+03 kg/m^3

Total potential energy/kʙ       -2.930194e+05 [K]
-------------------------------------------------------------------------------
    external field VDW/kʙ        0.000000e+00 [K]
    external field Real/kʙ       0.000000e+00 [K]
    framework-molecule VDW/kʙ    0.000000e+00 [K]
    framework-molecule Real/kʙ   0.000000e+00 [K]
    molecule-molecule VDW/kʙ    -2.114469e+05 [K]
    molecule-molecule Real/kʙ   -6.516875e+04 [K]
    Van der Waals (Tail)/kʙ     -6.793646e+03 [K]
    Ewald Fourier/kʙ             8.543052e+03 [K]
    Ewald self/kʙ               -4.023739e+06 [K]
    Ewald exclusion/kʙ           4.005586e+06 [K]
    intra VDW/kʙ                 0.000000e+00 [K]
    intra Coulombic/kʙ           0.000000e+00 [K]
    polarization/kʙ              0.000000e+00 [K]
    dU/dlambda VDW/kʙ            0.000000e+00 [K]
    dU/dlambda Real/kʙ           0.000000e+00 [K]
    dU/dlambda Ewald/kʙ          0.000000e+00 [K]


Initialization: Current cycle: 400 out of 1000
===============================================================================

Box:      24.04645   0.00000   0.00000
           0.00000  24.04645   0.00000
           0.00000   0.00000  24.04645
Lengths:  24.04645  24.04645  24.04645
Angles:   90.00000  90.00000  90.00000
Rectangular boundary conditions

net charge:   0.00000000

component   0 (CO2) lambda:  0 occupancy:  1 (1.000000)
    net charge:   0.00000000 [e]

Amount of molecules per component :
-------------------------------------------------------------------------------
Component 0 (CO2)
    molecules:         2.000000e+02 molecules
    number density:    1.438392e-02 molec/A^3
    density:           1.050914e+03 kg/m^3

Total potential energy/kʙ       -3.017098e+05 [K]
-------------------------------------------------------------------------------
    external field VDW/kʙ        0.000000e+00 [K]
    external field Real/kʙ       0.000000e+00 [K]
    framework-molecule VDW/kʙ    0.000000e+00 [K]
    framework-molecule Real/kʙ   0.000000e+00 [K]
    molecule-molecule VDW/kʙ    -2.136990e+05 [K]
    molecule-molecule Real/kʙ   -7.073445e+04 [K]
    Van der Waals (Tail)/kʙ     -6.935608e+03 [K]
    Ewald Fourier/kʙ             7.812342e+03 [K]
    Ewald self/kʙ               -4.023739e+06 [K]
    Ewald exclusion/kʙ           4.005586e+06 [K]
    intra VDW/kʙ                 0.000000e+00 [K]
    intra Coulombic/kʙ           0.000000e+00 [K]
    polarization/kʙ              0.000000e+00 [K]
    dU/dlambda VDW/kʙ            0.000000e+00 [K]
    dU/dlambda Real/kʙ           0.000000e+00 [K]
    dU/dlambda Ewald/kʙ          0.000000e+00 [K]


Initialization: Current cycle: 500 out of 1000
===============================================================================

Box:      23.79832   0.00000   0.00000
           0.00000  23.79832   0.00000
           0.00000   0.00000  23.79832
Lengths:  23.79832  23.79832  23.79832
Angles:   90.00000  90.00000  90.00000
Rectangular boundary conditions

net charge:   0.00000000

component   0 (CO2) lambda:  0 occupancy:  1 (1.000000)
    net charge:   0.00000000 [e]

Amount of molecules per component :
-------------------------------------------------------------------------------
Component 0 (CO2)
    molecules:         2.000000e+02 molecules
    number density:    1.483854e-02 molec/A^3
    density:           1.084129e+03 kg/m^3

Total potential energy/kʙ       -3.075047e+05 [K]
-------------------------------------------------------------------------------
    external field VDW/kʙ        0.000000e+00 [K]
    external field Real/kʙ       0.000000e+00 [K]
    framework-molecule VDW/kʙ    0.000000e+00 [K]
    framework-molecule Real/kʙ   0.000000e+00 [K]
    molecule-molecule VDW/kʙ    -2.201301e+05 [K]
    molecule-molecule Real/kʙ   -7.086017e+04 [K]
    Van der Waals (Tail)/kʙ     -7.154815e+03 [K]
    Ewald Fourier/kʙ             8.793424e+03 [K]
    Ewald self/kʙ               -4.023739e+06 [K]
    Ewald exclusion/kʙ           4.005586e+06 [K]
    intra VDW/kʙ                 0.000000e+00 [K]
    intra Coulombic/kʙ           0.000000e+00 [K]
    polarization/kʙ              0.000000e+00 [K]
    dU/dlambda VDW/kʙ            0.000000e+00 [K]
    dU/dlambda Real/kʙ           0.000000e+00 [K]
    dU/dlambda Ewald/kʙ          0.000000e+00 [K]


Initialization: Current cycle: 600 out of 1000
===============================================================================

Box:      23.64046   0.00000   0.00000
           0.00000  23.64046   0.00000
           0.00000   0.00000  23.64046
Lengths:  23.64046  23.64046  23.64046
Angles:   90.00000  90.00000  90.00000
Rectangular boundary conditions

net charge:   0.00000000

component   0 (CO2) lambda:  0 occupancy:  1 (1.000000)
    net charge:   0.00000000 [e]

Amount of molecules per component :
-------------------------------------------------------------------------------
Component 0 (CO2)
    molecules:         2.000000e+02 molecules
    number density:    1.513779e-02 molec/A^3
    density:           1.105993e+03 kg/m^3

Total potential energy/kʙ       -3.260528e+05 [K]
-------------------------------------------------------------------------------
    external field VDW/kʙ        0.000000e+00 [K]
    external field Real/kʙ       0.000000e+00 [K]
    framework-molecule VDW/kʙ    0.000000e+00 [K]
    framework-molecule Real/kʙ   0.000000e+00 [K]
    molecule-molecule VDW/kʙ    -2.353226e+05 [K]
    molecule-molecule Real/kʙ   -7.233406e+04 [K]
    Van der Waals (Tail)/kʙ     -7.299108e+03 [K]
    Ewald Fourier/kʙ             7.056084e+03 [K]
    Ewald self/kʙ               -4.023739e+06 [K]
    Ewald exclusion/kʙ           4.005586e+06 [K]
    intra VDW/kʙ                 0.000000e+00 [K]
    intra Coulombic/kʙ           0.000000e+00 [K]
    polarization/kʙ              0.000000e+00 [K]
    dU/dlambda VDW/kʙ            0.000000e+00 [K]
    dU/dlambda Real/kʙ           0.000000e+00 [K]
    dU/dlambda Ewald/kʙ          0.000000e+00 [K]


Initialization: Current cycle: 700 out of 1000
===============================================================================

Box:      23.84567   0.00000   0.00000
           0.00000  23.84567   0.00000
           0.00000   0.00000  23.84567
Lengths:  23.84567  23.84567  23.84567
Angles:   90.00000  90.00000  90.00000
Rectangular boundary conditions

net charge:   0.00000000

component   0 (CO2) lambda:  0 occupancy:  1 (1.000000)
    net charge:   0.00000000 [e]

Amount of molecules per component :
-------------------------------------------------------------------------------
Component 0 (CO2)
    molecules:         2.000000e+02 molecules
    number density:    1.475031e-02 molec/A^3
    density:           1.077683e+03 kg/m^3

Total potential energy/kʙ       -3.110635e+05 [K]
-------------------------------------------------------------------------------
    external field VDW/kʙ        0.000000e+00 [K]
    external field Real/kʙ       0.000000e+00 [K]
    framework-molecule VDW/kʙ    0.000000e+00 [K]
    framework-molecule Real/kʙ   0.000000e+00 [K]
    molecule-molecule VDW/kʙ    -2.267092e+05 [K]
    molecule-molecule Real/kʙ   -6.680076e+04 [K]
    Van der Waals (Tail)/kʙ     -7.112274e+03 [K]
    Ewald Fourier/kʙ             7.711812e+03 [K]
    Ewald self/kʙ               -4.023739e+06 [K]
    Ewald exclusion/kʙ           4.005586e+06 [K]
    intra VDW/kʙ                 0.000000e+00 [K]
    intra Coulombic/kʙ           0.000000e+00 [K]
    polarization/kʙ              0.000000e+00 [K]
    dU/dlambda VDW/kʙ            0.000000e+00 [K]
    dU/dlambda Real/kʙ           0.000000e+00 [K]
    dU/dlambda Ewald/kʙ          0.000000e+00 [K]


Initialization: Current cycle: 800 out of 1000
===============================================================================

Box:      23.89069   0.00000   0.00000
           0.00000  23.89069   0.00000
           0.00000   0.00000  23.89069
Lengths:  23.89069  23.89069  23.89069
Angles:   90.00000  90.00000  90.00000
Rectangular boundary conditions

net charge:   0.00000000

component   0 (CO2) lambda:  0 occupancy:  1 (1.000000)
    net charge:   0.00000000 [e]

Amount of molecules per component :
-------------------------------------------------------------------------------
Component 0 (CO2)
    molecules:         2.000000e+02 molecules
    number density:    1.466709e-02 molec/A^3
    density:           1.071603e+03 kg/m^3

Total potential energy/kʙ       -3.034354e+05 [K]
-------------------------------------------------------------------------------
    external field VDW/kʙ        0.000000e+00 [K]
    external field Real/kʙ       0.000000e+00 [K]
    framework-molecule VDW/kʙ    0.000000e+00 [K]
    framework-molecule Real/kʙ   0.000000e+00 [K]
    molecule-molecule VDW/kʙ    -2.142166e+05 [K]
    molecule-molecule Real/kʙ   -7.234293e+04 [K]
    Van der Waals (Tail)/kʙ     -7.072147e+03 [K]
    Ewald Fourier/kʙ             8.349420e+03 [K]
    Ewald self/kʙ               -4.023739e+06 [K]
    Ewald exclusion/kʙ           4.005586e+06 [K]
    intra VDW/kʙ                 0.000000e+00 [K]
    intra Coulombic/kʙ           0.000000e+00 [K]
    polarization/kʙ              0.000000e+00 [K]
    dU/dlambda VDW/kʙ            0.000000e+00 [K]
    dU/dlambda Real/kʙ           0.000000e+00 [K]
    dU/dlambda Ewald/kʙ          0.000000e+00 [K]


Initialization: Current cycle: 900 out of 1000
===============================================================================

Box:      23.98153   0.00000   0.00000
           0.00000  23.98153   0.00000
           0.00000   0.00000  23.98153
Lengths:  23.98153  23.98153  23.98153
Angles:   90.00000  90.00000  90.00000
Rectangular boundary conditions

net charge:   0.00000000

component   0 (CO2) lambda:  0 occupancy:  1 (1.000000)
    net charge:   0.00000000 [e]

Amount of molecules per component :
-------------------------------------------------------------------------------
Component 0 (CO2)
    molecules:         2.000000e+02 molecules
    number density:    1.450104e-02 molec/A^3
    density:           1.059471e+03 kg/m^3

Total potential energy/kʙ       -3.001428e+05 [K]
-------------------------------------------------------------------------------
    external field VDW/kʙ        0.000000e+00 [K]
    external field Real/kʙ       0.000000e+00 [K]
    framework-molecule VDW/kʙ    0.000000e+00 [K]
    framework-molecule Real/kʙ   0.000000e+00 [K]
    molecule-molecule VDW/kʙ    -2.183143e+05 [K]
    molecule-molecule Real/kʙ   -6.527585e+04 [K]
    Van der Waals (Tail)/kʙ     -6.992081e+03 [K]
    Ewald Fourier/kʙ             8.592500e+03 [K]
    Ewald self/kʙ               -4.023739e+06 [K]
    Ewald exclusion/kʙ           4.005586e+06 [K]
    intra VDW/kʙ                 0.000000e+00 [K]
    intra Coulombic/kʙ           0.000000e+00 [K]
    polarization/kʙ              0.000000e+00 [K]
    dU/dlambda VDW/kʙ            0.000000e+00 [K]
    dU/dlambda Real/kʙ           0.000000e+00 [K]
    dU/dlambda Ewald/kʙ          0.000000e+00 [K]


Current cycle: 0 out of 5000
===============================================================================

Box:      23.85497   0.00000   0.00000  Average:  23.85497   0.00000   0.00000
           0.00000  23.85497   0.00000             0.00000  23.85497   0.00000
           0.00000   0.00000  23.85497             0.00000   0.00000  23.85497
Lengths:  23.85497  23.85497  23.85497  Average:  23.85497  23.85497  23.85497
Angles:   90.00000  90.00000  90.00000  Average:  90.00000  90.00000  90.00000
Rectangular boundary conditions

net charge:   0.00000000

component 0 (CO2) lambda:  0 occupancy:  1 (1.000000)
    net charge:   0.00000000 [e]

Amount of molecules per component :
-------------------------------------------------------------------------------
Component 0 (CO2)
    molecules:      2.000000e+02 molecules  (2.000000e+02 +/- 0.000000e+00)
    number density: 1.473308e-02 molec./A^3 (1.473308e-02 +/- 0.000000e+00)
    density:        1.076424e+03 kg/m^3     (1.076424e+03 +/- 0.000000e+00)

Average pressure tensor: 
-------------------------------------------------------------------------------
 5.0853e+02  0.0000e+00  0.0000e+00 +/- 0.0000e+00 0.0000e+00 0.0000e+00 [bar]
 0.0000e+00  5.0853e+02  0.0000e+00 +/- 0.0000e+00 0.0000e+00 0.0000e+00 [bar]
 0.0000e+00  0.0000e+00  5.0853e+02 +/- 0.0000e+00 0.0000e+00 0.0000e+00 [bar]
Ideal-gas pressure:   5.085307e+02 +/ 0.000000e+00 [bar]
Excess pressure:      0.000000e+00 +/ 0.000000e+00 [bar]
Pressure:             5.085307e+02 +/ 0.000000e+00 [bar]

Total potential energy/kʙ  -3.003480e+05 (-3.003480e+05 +/- 0.000000e+00) [K]
-------------------------------------------------------------------------------
ExternalField-molecule
    Van der Waals/kʙ        0.000000e+00 ( 0.000000e+00 +/- 0.000000e+00) [K]
Framework-molecule
    Van der Waals/kʙ        0.000000e+00 ( 0.000000e+00 +/- 0.000000e+00) [K]
    Van der Waals (Tail)/kʙ 0.000000e+00 ( 0.000000e+00 +/- 0.000000e+00) [K]
    Coulombic Real/kʙ       0.000000e+00 ( 0.000000e+00 +/- 0.000000e+00) [K]
    Coulombic Fourier/kʙ    0.000000e+00 ( 0.000000e+00 +/- 0.000000e+00) [K]
Molecule-molecule
    Van der Waals/kʙ       -2.204350e+05 (-2.204350e+05 +/- 0.000000e+00) [K]
    Van der Waals (Tail)/kʙ-7.103964e+03 (-7.103964e+03 +/- 0.000000e+00) [K]
    Coulombic Real/kʙ      -6.401958e+04 (-6.401958e+04 +/- 0.000000e+00) [K]
    Coulombic Fourier/kʙ   -8.789533e+03 (-8.789533e+03 +/- 0.000000e+00) [K]
    Molecule Intra/kʙ       0.000000e+00 ( 0.000000e+00 +/- 0.000000e+00) [K]

Current cycle: 100 out of 5000
===============================================================================

Box:      23.55176   0.00000   0.00000  Average:  23.74047   0.00000   0.00000
           0.00000  23.55176   0.00000             0.00000  23.74047   0.00000
           0.00000   0.00000  23.55176             0.00000   0.00000  23.74047
Lengths:  23.55176  23.55176  23.55176  Average:  23.74047  23.74047  23.74047
Angles:   90.00000  90.00000  90.00000  Average:  90.00000  90.00000  90.00000
Rectangular boundary conditions

net charge:   0.00000000

component 0 (CO2) lambda:  0 occupancy:  1 (1.000000)
    net charge:   0.00000000 [e]

Amount of molecules per component :
-------------------------------------------------------------------------------
Component 0 (CO2)
    molecules:      2.000000e+02 molecules  (2.000000e+02 +/- 0.000000e+00)
    number density: 1.530947e-02 molec./A^3 (1.494966e-02 +/- 0.000000e+00)
    density:        1.118536e+03 kg/m^3     (1.092248e+03 +/- 0.000000e+00)

Average pressure tensor: 
-------------------------------------------------------------------------------
 1.7140e+02  1.2811e+02  7.7327e+01 +/- 0.0000e+00 0.0000e+00 0.0000e+00 [bar]
 1.2811e+02  2.8972e+02 -6.8876e+01 +/- 0.0000e+00 0.0000e+00 0.0000e+00 [bar]
 7.7327e+01 -6.8876e+01  3.7894e+02 +/- 0.0000e+00 0.0000e+00 0.0000e+00 [bar]
Ideal-gas pressure:   5.160063e+02 +/ 0.000000e+00 [bar]
Excess pressure:     -2.359896e+02 +/ 0.000000e+00 [bar]
Pressure:             2.800167e+02 +/ 0.000000e+00 [bar]

Total potential energy/kʙ  -3.214095e+05 (-3.137952e+05 +/- 0.000000e+00) [K]
-------------------------------------------------------------------------------
ExternalField-molecule
    Van der Waals/kʙ        0.000000e+00 ( 0.000000e+00 +/- 0.000000e+00) [K]
Framework-molecule
    Van der Waals/kʙ        0.000000e+00 ( 0.000000e+00 +/- 0.000000e+00) [K]
    Van der Waals (Tail)/kʙ 0.000000e+00 ( 0.000000e+00 +/- 0.000000e+00) [K]
    Coulombic Real/kʙ       0.000000e+00 ( 0.000000e+00 +/- 0.000000e+00) [K]
    Coulombic Fourier/kʙ    0.000000e+00 ( 0.000000e+00 +/- 0.000000e+00) [K]
Molecule-molecule
    Van der Waals/kʙ       -2.311099e+05 (-2.259525e+05 +/- 0.000000e+00) [K]
    Van der Waals (Tail)/kʙ-7.381888e+03 (-7.226050e+03 +/- 0.000000e+00) [K]
    Coulombic Real/kʙ      -7.274212e+04 (-7.048688e+04 +/- 0.000000e+00) [K]
    Coulombic Fourier/kʙ   -1.017560e+04 (-1.012972e+04 +/- 0.000000e+00) [K]
    Molecule Intra/kʙ       0.000000e+00 ( 0.000000e+00 +/- 0.000000e+00) [K]

Current cycle: 200 out of 5000
===============================================================================

Box:      23.62445   0.00000   0.00000  Average:  23.66654   0.00000   0.00000
           0.00000  23.62445   0.00000             0.00000  23.66654   0.00000
           0.00000   0.00000  23.62445             0.00000   0.00000  23.66654
Lengths:  23.62445  23.62445  23.62445  Average:  23.66654  23.66654  23.66654
Angles:   90.00000  90.00000  90.00000  Average:  90.00000  90.00000  90.00000
Rectangular boundary conditions

net charge:   0.00000000

component 0 (CO2) lambda:  0 occupancy:  1 (1.000000)
    net charge:   0.00000000 [e]

Amount of molecules per component :
-------------------------------------------------------------------------------
Component 0 (CO2)
    molecules:      2.000000e+02 molecules  (2.000000e+02 +/- 0.000000e+00)
    number density: 1.516857e-02 molec./A^3 (1.509067e-02 +/- 0.000000e+00)
    density:        1.108242e+03 kg/m^3     (1.102550e+03 +/- 0.000000e+00)

Average pressure tensor: 
-------------------------------------------------------------------------------
 3.1144e+02  1.9326e+02  1.1233e+02 +/- 0.0000e+00 0.0000e+00 0.0000e+00 [bar]
 1.9326e+02  1.6970e+02 -8.2299e+01 +/- 0.0000e+00 0.0000e+00 0.0000e+00 [bar]
 1.1233e+02 -8.2299e+01  3.0228e+02 +/- 0.0000e+00 0.0000e+00 0.0000e+00 [bar]
Ideal-gas pressure:   5.208736e+02 +/ 0.000000e+00 [bar]
Excess pressure:     -2.597325e+02 +/ 0.000000e+00 [bar]
Pressure:             2.611411e+02 +/ 0.000000e+00 [bar]

Total potential energy/kʙ  -3.195456e+05 (-3.176146e+05 +/- 0.000000e+00) [K]
-------------------------------------------------------------------------------
ExternalField-molecule
    Van der Waals/kʙ        0.000000e+00 ( 0.000000e+00 +/- 0.000000e+00) [K]
Framework-molecule
    Van der Waals/kʙ        0.000000e+00 ( 0.000000e+00 +/- 0.000000e+00) [K]
    Van der Waals (Tail)/kʙ 0.000000e+00 ( 0.000000e+00 +/- 0.000000e+00) [K]
    Coulombic Real/kʙ       0.000000e+00 ( 0.000000e+00 +/- 0.000000e+00) [K]
    Coulombic Fourier/kʙ    0.000000e+00 ( 0.000000e+00 +/- 0.000000e+00) [K]
Molecule-molecule
    Van der Waals/kʙ       -2.347633e+05 (-2.290866e+05 +/- 0.000000e+00) [K]
    Van der Waals (Tail)/kʙ-7.313950e+03 (-7.291120e+03 +/- 0.000000e+00) [K]
    Coulombic Real/kʙ      -6.815240e+04 (-7.116298e+04 +/- 0.000000e+00) [K]
    Coulombic Fourier/kʙ   -9.315959e+03 (-1.007384e+04 +/- 0.000000e+00) [K]
    Molecule Intra/kʙ       0.000000e+00 ( 0.000000e+00 +/- 0.000000e+00) [K]

Current cycle: 300 out of 5000
===============================================================================

Box:      23.79133   0.00000   0.00000  Average:  23.65858   0.00000   0.00000
           0.00000  23.79133   0.00000             0.00000  23.65858   0.00000
           0.00000   0.00000  23.79133             0.00000   0.00000  23.65858
Lengths:  23.79133  23.79133  23.79133  Average:  23.65858  23.65858  23.65858
Angles:   90.00000  90.00000  90.00000  Average:  90.00000  90.00000  90.00000
Rectangular boundary conditions

net charge:   0.00000000

component 0 (CO2) lambda:  0 occupancy:  1 (1.000000)
    net charge:   0.00000000 [e]

Amount of molecules per component :
-------------------------------------------------------------------------------
Component 0 (CO2)
    molecules:      2.000000e+02 molecules  (2.000000e+02 +/- 0.000000e+00)
    number density: 1.485162e-02 molec./A^3 (1.510555e-02 +/- 0.000000e+00)
    density:        1.085085e+03 kg/m^3     (1.103637e+03 +/- 0.000000e+00)

Average pressure tensor: 
-------------------------------------------------------------------------------
 2.7283e+02  1.9922e+02  9.3249e+01 +/- 0.0000e+00 0.0000e+00 0.0000e+00 [bar]
 1.9922e+02  1.2734e+02 -1.0955e+02 +/- 0.0000e+00 0.0000e+00 0.0000e+00 [bar]
 9.3249e+01 -1.0955e+02  2.8101e+02 +/- 0.0000e+00 0.0000e+00 0.0000e+00 [bar]
Ideal-gas pressure:   5.213869e+02 +/ 0.000000e+00 [bar]
Excess pressure:     -2.943273e+02 +/ 0.000000e+00 [bar]
Pressure:             2.270596e+02 +/ 0.000000e+00 [bar]

Total potential energy/kʙ  -3.188891e+05 (-3.185436e+05 +/- 0.000000e+00) [K]
-------------------------------------------------------------------------------
ExternalField-molecule
    Van der Waals/kʙ        0.000000e+00 ( 0.000000e+00 +/- 0.000000e+00) [K]
Framework-molecule
    Van der Waals/kʙ        0.000000e+00 ( 0.000000e+00 +/- 0.000000e+00) [K]
    Van der Waals (Tail)/kʙ 0.000000e+00 ( 0.000000e+00 +/- 0.000000e+00) [K]
    Coulombic Real/kʙ       0.000000e+00 ( 0.000000e+00 +/- 0.000000e+00) [K]
    Coulombic Fourier/kʙ    0.000000e+00 ( 0.000000e+00 +/- 0.000000e+00) [K]
Molecule-molecule
    Van der Waals/kʙ       -2.268236e+05 (-2.291583e+05 +/- 0.000000e+00) [K]
    Van der Waals (Tail)/kʙ-7.161124e+03 (-7.285573e+03 +/- 0.000000e+00) [K]
    Coulombic Real/kʙ      -7.458502e+04 (-7.204124e+04 +/- 0.000000e+00) [K]
    Coulombic Fourier/kʙ   -1.031944e+04 (-1.005856e+04 +/- 0.000000e+00) [K]
    Molecule Intra/kʙ       0.000000e+00 ( 0.000000e+00 +/- 0.000000e+00) [K]

Current cycle: 400 out of 5000
===============================================================================

Box:      23.84929   0.00000   0.00000  Average:  23.66538   0.00000   0.00000
           0.00000  23.84929   0.00000             0.00000  23.66538   0.00000
           0.00000   0.00000  23.84929             0.00000   0.00000  23.66538
Lengths:  23.84929  23.84929  23.84929  Average:  23.66538  23.66538  23.66538
Angles:   90.00000  90.00000  90.00000  Average:  90.00000  90.00000  90.00000
Rectangular boundary conditions

net charge:   0.00000000

component 0 (CO2) lambda:  0 occupancy:  1 (1.000000)
    net charge:   0.00000000 [e]

Amount of molecules per component :
-------------------------------------------------------------------------------
Component 0 (CO2)
    molecules:      2.000000e+02 molecules  (2.000000e+02 +/- 0.000000e+00)
    number density: 1.474360e-02 molec./A^3 (1.509225e-02 +/- 0.000000e+00)
    density:        1.077192e+03 kg/m^3     (1.102666e+03 +/- 0.000000e+00)

Average pressure tensor: 
-------------------------------------------------------------------------------
 2.5730e+02  1.6868e+02  7.5373e+01 +/- 0.0000e+00 0.0000e+00 0.0000e+00 [bar]
 1.6868e+02  1.2885e+02 -6.5279e+01 +/- 0.0000e+00 0.0000e+00 0.0000e+00 [bar]
 7.5373e+01 -6.5279e+01  2.7233e+02 +/- 0.0000e+00 0.0000e+00 0.0000e+00 [bar]
Ideal-gas pressure:   5.209281e+02 +/ 0.000000e+00 [bar]
Excess pressure:     -3.014352e+02 +/ 0.000000e+00 [bar]
Pressure:             2.194929e+02 +/ 0.000000e+00 [bar]

Total potential energy/kʙ  -3.171847e+05 (-3.189092e+05 +/- 0.000000e+00) [K]
-------------------------------------------------------------------------------
ExternalField-molecule
    Van der Waals/kʙ        0.000000e+00 ( 0.000000e+00 +/- 0.000000e+00) [K]
Framework-molecule
    Van der Waals/kʙ        0.000000e+00 ( 0.000000e+00 +/- 0.000000e+00) [K]
    Van der Waals (Tail)/kʙ 0.000000e+00 ( 0.000000e+00 +/- 0.000000e+00) [K]
    Coulombic Real/kʙ       0.000000e+00 ( 0.000000e+00 +/- 0.000000e+00) [K]
    Coulombic Fourier/kʙ    0.000000e+00 ( 0.000000e+00 +/- 0.000000e+00) [K]
Molecule-molecule
    Van der Waals/kʙ       -2.283548e+05 (-2.290526e+05 +/- 0.000000e+00) [K]
    Van der Waals (Tail)/kʙ-7.109036e+03 (-7.278025e+03 +/- 0.000000e+00) [K]
    Coulombic Real/kʙ      -7.111612e+04 (-7.241393e+04 +/- 0.000000e+00) [K]
    Coulombic Fourier/kʙ   -1.060476e+04 (-1.016470e+04 +/- 0.000000e+00) [K]
    Molecule Intra/kʙ       0.000000e+00 ( 0.000000e+00 +/- 0.000000e+00) [K]

Current cycle: 500 out of 5000
===============================================================================

Box:      23.49069   0.00000   0.00000  Average:  23.66310   0.00000   0.00000
           0.00000  23.49069   0.00000             0.00000  23.66310   0.00000
           0.00000   0.00000  23.49069             0.00000   0.00000  23.66310
Lengths:  23.49069  23.49069  23.49069  Average:  23.66310  23.66310  23.66310
Angles:   90.00000  90.00000  90.00000  Average:  90.00000  90.00000  90.00000
Rectangular boundary conditions

net charge:   0.00000000

component 0 (CO2) lambda:  0 occupancy:  1 (1.000000)
    net charge:   0.00000000 [e]

Amount of molecules per component :
-------------------------------------------------------------------------------
Component 0 (CO2)
    molecules:      2.000000e+02 molecules  (2.000000e+02 +/- 0.000000e+00)
    number density: 1.542917e-02 molec./A^3 (1.509638e-02 +/- 0.000000e+00)
    density:        1.127282e+03 kg/m^3     (1.102967e+03 +/- 0.000000e+00)

Average pressure tensor: 
-------------------------------------------------------------------------------
 2.6232e+02  1.1394e+02  7.2430e+01 +/- 0.0000e+00 0.0000e+00 0.0000e+00 [bar]
 1.1394e+02  9.7397e+01 -3.9314e+01 +/- 0.0000e+00 0.0000e+00 0.0000e+00 [bar]
 7.2430e+01 -3.9314e+01  2.9136e+02 +/- 0.0000e+00 0.0000e+00 0.0000e+00 [bar]
Ideal-gas pressure:   5.210705e+02 +/ 0.000000e+00 [bar]
Excess pressure:     -3.040431e+02 +/ 0.000000e+00 [bar]
Pressure:             2.170274e+02 +/ 0.000000e+00 [bar]

Total potential energy/kʙ  -3.227467e+05 (-3.186221e+05 +/- 0.000000e+00) [K]
-------------------------------------------------------------------------------
ExternalField-molecule
    Van der Waals/kʙ        0.000000e+00 ( 0.000000e+00 +/- 0.000000e+00) [K]
Framework-molecule
    Van der Waals/kʙ        0.000000e+00 ( 0.000000e+00 +/- 0.000000e+00) [K]
    Van der Waals (Tail)/kʙ 0.000000e+00 ( 0.000000e+00 +/- 0.000000e+00) [K]
    Coulombic Real/kʙ       0.000000e+00 ( 0.000000e+00 +/- 0.000000e+00) [K]
    Coulombic Fourier/kʙ    0.000000e+00 ( 0.000000e+00 +/- 0.000000e+00) [K]
Molecule-molecule
    Van der Waals/kʙ       -2.319407e+05 (-2.288909e+05 +/- 0.000000e+00) [K]
    Van der Waals (Tail)/kʙ-7.439605e+03 (-7.282530e+03 +/- 0.000000e+00) [K]
    Coulombic Real/kʙ      -7.360554e+04 (-7.218757e+04 +/- 0.000000e+00) [K]
    Coulombic Fourier/kʙ   -9.760859e+03 (-1.026119e+04 +/- 0.000000e+00) [K]
    Molecule Intra/kʙ       0.000000e+00 ( 0.000000e+00 +/- 0.000000e+00) [K]

Current cycle: 600 out of 5000
===============================================================================

Box:      23.74762   0.00000   0.00000  Average:  23.67139   0.00000   0.00000
           0.00000  23.74762   0.00000             0.00000  23.67139   0.00000
           0.00000   0.00000  23.74762             0.00000   0.00000  23.67139
Lengths:  23.74762  23.74762  23.74762  Average:  23.67139  23.67139  23.67139
Angles:   90.00000  90.00000  90.00000  Average:  90.00000  90.00000  90.00000
Rectangular boundary conditions

net charge:   0.00000000

component 0 (CO2) lambda:  0 occupancy:  1 (1.000000)
    net charge:   0.00000000 [e]

Amount of molecules per component :
-------------------------------------------------------------------------------
Component 0 (CO2)
    molecules:      2.000000e+02 molecules  (2.000000e+02 +/- 0.000000e+00)
    number density: 1.493378e-02 molec./A^3 (1.508055e-02 +/- 0.000000e+00)
    density:        1.091087e+03 kg/m^3     (1.101811e+03 +/- 0.000000e+00)

Average pressure tensor: 
-------------------------------------------------------------------------------
 1.9247e+02  8.5404e+01  8.6330e+01 +/- 0.0000e+00 0.0000e+00 0.0000e+00 [bar]
 8.5404e+01  1.5931e+02 -2.6896e+01 +/- 0.0000e+00 0.0000e+00 0.0000e+00 [bar]
 8.6330e+01 -2.6896e+01  2.7593e+02 +/- 0.0000e+00 0.0000e+00 0.0000e+00 [bar]
Ideal-gas pressure:   5.205241e+02 +/ 0.000000e+00 [bar]
Excess pressure:     -3.112881e+02 +/ 0.000000e+00 [bar]
Pressure:             2.092361e+02 +/ 0.000000e+00 [bar]

Total potential energy/kʙ  -3.117411e+05 (-3.185116e+05 +/- 0.000000e+00) [K]
-------------------------------------------------------------------------------
ExternalField-molecule
    Van der Waals/kʙ        0.000000e+00 ( 0.000000e+00 +/- 0.000000e+00) [K]
Framework-molecule
    Van der Waals/kʙ        0.000000e+00 ( 0.000000e+00 +/- 0.000000e+00) [K]
    Van der Waals (Tail)/kʙ 0.000000e+00 ( 0.000000e+00 +/- 0.000000e+00) [K]
    Coulombic Real/kʙ       0.000000e+00 ( 0.000000e+00 +/- 0.000000e+00) [K]
    Coulombic Fourier/kʙ    0.000000e+00 ( 0.000000e+00 +/- 0.000000e+00) [K]
Molecule-molecule
    Van der Waals/kʙ       -2.273819e+05 (-2.285031e+05 +/- 0.000000e+00) [K]
    Van der Waals (Tail)/kʙ-7.200736e+03 (-7.269799e+03 +/- 0.000000e+00) [K]
    Coulombic Real/kʙ      -6.766237e+04 (-7.249658e+04 +/- 0.000000e+00) [K]
    Coulombic Fourier/kʙ   -9.496034e+03 (-1.024214e+04 +/- 0.000000e+00) [K]
    Molecule Intra/kʙ       0.000000e+00 ( 0.000000e+00 +/- 0.000000e+00) [K]

Current cycle: 700 out of 5000
===============================================================================

Box:      23.57058   0.00000   0.00000  Average:  23.67860   0.00000   0.00000
           0.00000  23.57058   0.00000             0.00000  23.67860   0.00000
           0.00000   0.00000  23.57058             0.00000   0.00000  23.67860
Lengths:  23.57058  23.57058  23.57058  Average:  23.67860  23.67860  23.67860
Angles:   90.00000  90.00000  90.00000  Average:  90.00000  90.00000  90.00000
Rectangular boundary conditions

net charge:   0.00000000

component 0 (CO2) lambda:  0 occupancy:  1 (1.000000)
    net charge:   0.00000000 [e]

Amount of molecules per component :
-------------------------------------------------------------------------------
Component 0 (CO2)
    molecules:      2.000000e+02 molecules  (2.000000e+02 +/- 0.000000e+00)
    number density: 1.527281e-02 molec./A^3 (1.506676e-02 +/- 0.000000e+00)
    density:        1.115858e+03 kg/m^3     (1.100803e+03 +/- 0.000000e+00)

Average pressure tensor: 
-------------------------------------------------------------------------------
 2.0634e+02  9.3087e+01  1.1366e+02 +/- 0.0000e+00 0.0000e+00 0.0000e+00 [bar]
 9.3087e+01  1.5696e+02 -1.7855e+01 +/- 0.0000e+00 0.0000e+00 0.0000e+00 [bar]
 1.1366e+02 -1.7855e+01  2.6649e+02 +/- 0.0000e+00 0.0000e+00 0.0000e+00 [bar]
Ideal-gas pressure:   5.200482e+02 +/ 0.000000e+00 [bar]
Excess pressure:     -3.101206e+02 +/ 0.000000e+00 [bar]
Pressure:             2.099276e+02 +/ 0.000000e+00 [bar]

Total potential energy/kʙ  -3.249265e+05 (-3.184452e+05 +/- 0.000000e+00) [K]
-------------------------------------------------------------------------------
ExternalField-molecule
    Van der Waals/kʙ        0.000000e+00 ( 0.000000e+00 +/- 0.000000e+00) [K]
Framework-molecule
    Van der Waals/kʙ        0.000000e+00 ( 0.000000e+00 +/- 0.000000e+00) [K]
    Van der Waals (Tail)/kʙ 0.000000e+00 ( 0.000000e+00 +/- 0.000000e+00) [K]
    Coulombic Real/kʙ       0.000000e+00 ( 0.000000e+00 +/- 0.000000e+00) [K]
    Coulombic Fourier/kʙ    0.000000e+00 ( 0.000000e+00 +/- 0.000000e+00) [K]
Molecule-molecule
    Van der Waals/kʙ       -2.311206e+05 (-2.282010e+05 +/- 0.000000e+00) [K]
    Van der Waals (Tail)/kʙ-7.364211e+03 (-7.265062e+03 +/- 0.000000e+00) [K]
    Coulombic Real/kʙ      -7.582743e+04 (-7.269763e+04 +/- 0.000000e+00) [K]
    Coulombic Fourier/kʙ   -1.061434e+04 (-1.028151e+04 +/- 0.000000e+00) [K]
    Molecule Intra/kʙ       0.000000e+00 ( 0.000000e+00 +/- 0.000000e+00) [K]

Current cycle: 800 out of 5000
===============================================================================

Box:      23.46487   0.00000   0.00000  Average:  23.66115   0.00000   0.00000
           0.00000  23.46487   0.00000             0.00000  23.66115   0.00000
           0.00000   0.00000  23.46487             0.00000   0.00000  23.66115
Lengths:  23.46487  23.46487  23.46487  Average:  23.66115  23.66115  23.66115
Angles:   90.00000  90.00000  90.00000  Average:  90.00000  90.00000  90.00000
Rectangular boundary conditions

net charge:   0.00000000

component 0 (CO2) lambda:  0 occupancy:  1 (1.000000)
    net charge:   0.00000000 [e]

Amount of molecules per component :
-------------------------------------------------------------------------------
Component 0 (CO2)
    molecules:      2.000000e+02 molecules  (2.000000e+02 +/- 0.000000e+00)
    number density: 1.548016e-02 molec./A^3 (1.510035e-02 +/- 0.000000e+00)
    density:        1.131007e+03 kg/m^3     (1.103257e+03 +/- 0.000000e+00)

Average pressure tensor: 
-------------------------------------------------------------------------------
 2.0161e+02  1.0831e+02  8.8378e+01 +/- 0.0000e+00 0.0000e+00 0.0000e+00 [bar]
 1.0831e+02  1.8202e+02 -2.6782e+01 +/- 0.0000e+00 0.0000e+00 0.0000e+00 [bar]
 8.8378e+01 -2.6782e+01  2.5852e+02 +/- 0.0000e+00 0.0000e+00 0.0000e+00 [bar]
Ideal-gas pressure:   5.212075e+02 +/ 0.000000e+00 [bar]
Excess pressure:     -3.071548e+02 +/ 0.000000e+00 [bar]
Pressure:             2.140527e+02 +/ 0.000000e+00 [bar]

Total potential energy/kʙ  -3.296019e+05 (-3.196132e+05 +/- 0.000000e+00) [K]
-------------------------------------------------------------------------------
ExternalField-molecule
    Van der Waals/kʙ        0.000000e+00 ( 0.000000e+00 +/- 0.000000e+00) [K]
Framework-molecule
    Van der Waals/kʙ        0.000000e+00 ( 0.000000e+00 +/- 0.000000e+00) [K]
    Van der Waals (Tail)/kʙ 0.000000e+00 ( 0.000000e+00 +/- 0.000000e+00) [K]
    Coulombic Real/kʙ       0.000000e+00 ( 0.000000e+00 +/- 0.000000e+00) [K]
    Coulombic Fourier/kʙ    0.000000e+00 ( 0.000000e+00 +/- 0.000000e+00) [K]
Molecule-molecule
    Van der Waals/kʙ       -2.319264e+05 (-2.289029e+05 +/- 0.000000e+00) [K]
    Van der Waals (Tail)/kʙ-7.464189e+03 (-7.282562e+03 +/- 0.000000e+00) [K]
    Coulombic Real/kʙ      -7.906084e+04 (-7.309055e+04 +/- 0.000000e+00) [K]
    Coulombic Fourier/kʙ   -1.115049e+04 (-1.033727e+04 +/- 0.000000e+00) [K]
    Molecule Intra/kʙ       0.000000e+00 ( 0.000000e+00 +/- 0.000000e+00) [K]

Current cycle: 900 out of 5000
===============================================================================

Box:      23.59582   0.00000   0.00000  Average:  23.64549   0.00000   0.00000
           0.00000  23.59582   0.00000             0.00000  23.64549   0.00000
           0.00000   0.00000  23.59582             0.00000   0.00000  23.64549
Lengths:  23.59582  23.59582  23.59582  Average:  23.64549  23.64549  23.64549
Angles:   90.00000  90.00000  90.00000  Average:  90.00000  90.00000  90.00000
Rectangular boundary conditions

net charge:   0.00000000

component 0 (CO2) lambda:  0 occupancy:  1 (1.000000)
    net charge:   0.00000000 [e]

Amount of molecules per component :
-------------------------------------------------------------------------------
Component 0 (CO2)
    molecules:      2.000000e+02 molecules  (2.000000e+02 +/- 0.000000e+00)
    number density: 1.522387e-02 molec./A^3 (1.513056e-02 +/- 0.000000e+00)
    density:        1.112282e+03 kg/m^3     (1.105464e+03 +/- 0.000000e+00)

Average pressure tensor: 
-------------------------------------------------------------------------------
 1.9854e+02  1.1216e+02  7.7970e+01 +/- 0.0000e+00 0.0000e+00 0.0000e+00 [bar]
 1.1216e+02  1.5335e+02 -3.0649e+01 +/- 0.0000e+00 0.0000e+00 0.0000e+00 [bar]
 7.7970e+01 -3.0649e+01  2.5814e+02 +/- 0.0000e+00 0.0000e+00 0.0000e+00 [bar]
Ideal-gas pressure:   5.222502e+02 +/ 0.000000e+00 [bar]
Excess pressure:     -3.189099e+02 +/ 0.000000e+00 [bar]
Pressure:             2.033403e+02 +/ 0.000000e+00 [bar]

Total potential energy/kʙ  -3.271632e+05 (-3.204470e+05 +/- 0.000000e+00) [K]
-------------------------------------------------------------------------------
ExternalField-molecule
    Van der Waals/kʙ        0.000000e+00 ( 0.000000e+00 +/- 0.000000e+00) [K]
Framework-molecule
    Van der Waals/kʙ        0.000000e+00 ( 0.000000e+00 +/- 0.000000e+00) [K]
    Van der Waals (Tail)/kʙ 0.000000e+00 ( 0.000000e+00 +/- 0.000000e+00) [K]
    Coulombic Real/kʙ       0.000000e+00 ( 0.000000e+00 +/- 0.000000e+00) [K]
    Coulombic Fourier/kʙ    0.000000e+00 ( 0.000000e+00 +/- 0.000000e+00) [K]
Molecule-molecule
    Van der Waals/kʙ       -2.320912e+05 (-2.294930e+05 +/- 0.000000e+00) [K]
    Van der Waals (Tail)/kʙ-7.340612e+03 (-7.294339e+03 +/- 0.000000e+00) [K]
    Coulombic Real/kʙ      -7.714239e+04 (-7.329592e+04 +/- 0.000000e+00) [K]
    Coulombic Fourier/kʙ   -1.058893e+04 (-1.036367e+04 +/- 0.000000e+00) [K]
    Molecule Intra/kʙ       0.000000e+00 ( 0.000000e+00 +/- 0.000000e+00) [K]

Current cycle: 1000 out of 5000
===============================================================================

Box:      23.48201   0.00000   0.00000  Average:  23.63610   0.00000   0.00000
           0.00000  23.48201   0.00000             0.00000  23.63610   0.00000
           0.00000   0.00000  23.48201             0.00000   0.00000  23.63610
Lengths:  23.48201  23.48201  23.48201  Average:  23.63610  23.63610  23.63610
Angles:   90.00000  90.00000  90.00000  Average:  90.00000  90.00000  90.00000
Rectangular boundary conditions

net charge:   0.00000000

component 0 (CO2) lambda:  0 occupancy:  1 (1.000000)
    net charge:   0.00000000 [e]

Amount of molecules per component :
-------------------------------------------------------------------------------
Component 0 (CO2)
    molecules:      2.000000e+02 molecules  (2.000000e+02 +/- 0.000000e+00)
    number density: 1.544630e-02 molec./A^3 (1.514870e-02 +/- 0.000000e+00)
    density:        1.128533e+03 kg/m^3     (1.106790e+03 +/- 0.000000e+00)

Average pressure tensor: 
-------------------------------------------------------------------------------
 1.7806e+02  1.1829e+02  9.4462e+01 +/- 0.0000e+00 0.0000e+00 0.0000e+00 [bar]
 1.1829e+02  1.5569e+02 -5.4155e+01 +/- 0.0000e+00 0.0000e+00 0.0000e+00 [bar]
 9.4462e+01 -5.4155e+01  2.4494e+02 +/- 0.0000e+00 0.0000e+00 0.0000e+00 [bar]
Ideal-gas pressure:   5.228763e+02 +/ 0.000000e+00 [bar]
Excess pressure:     -3.299769e+02 +/ 0.000000e+00 [bar]
Pressure:             1.928994e+02 +/ 0.000000e+00 [bar]

Total potential energy/kʙ  -3.258852e+05 (-3.210356e+05 +/- 0.000000e+00) [K]
-------------------------------------------------------------------------------
ExternalField-molecule
    Van der Waals/kʙ        0.000000e+00 ( 0.000000e+00 +/- 0.000000e+00) [K]
Framework-molecule
    Van der Waals/kʙ        0.000000e+00 ( 0.000000e+00 +/- 0.000000e+00) [K]
    Van der Waals (Tail)/kʙ 0.000000e+00 ( 0.000000e+00 +/- 0.000000e+00) [K]
    Coulombic Real/kʙ       0.000000e+00 ( 0.000000e+00 +/- 0.000000e+00) [K]
    Coulombic Fourier/kʙ    0.000000e+00 ( 0.000000e+00 +/- 0.000000e+00) [K]
Molecule-molecule
    Van der Waals/kʙ       -2.340141e+05 (-2.298059e+05 +/- 0.000000e+00) [K]
    Van der Waals (Tail)/kʙ-7.447864e+03 (-7.301293e+03 +/- 0.000000e+00) [K]
    Coulombic Real/kʙ      -7.327124e+04 (-7.351572e+04 +/- 0.000000e+00) [K]
    Coulombic Fourier/kʙ   -1.115205e+04 (-1.041273e+04 +/- 0.000000e+00) [K]
    Molecule Intra/kʙ       0.000000e+00 ( 0.000000e+00 +/- 0.000000e+00) [K]

Current cycle: 1100 out of 5000
===============================================================================

Box:      23.68755   0.00000   0.00000  Average:  23.63178   0.00000   0.00000
           0.00000  23.68755   0.00000             0.00000  23.63178   0.00000
           0.00000   0.00000  23.68755             0.00000   0.00000  23.63178
Lengths:  23.68755  23.68755  23.68755  Average:  23.63178  23.63178  23.63178
Angles:   90.00000  90.00000  90.00000  Average:  90.00000  90.00000  90.00000
Rectangular boundary conditions

net charge:   0.00000000

component 0 (CO2) lambda:  0 occupancy:  1 (1.000000)
    net charge:   0.00000000 [e]

Amount of molecules per component :
-------------------------------------------------------------------------------
Component 0 (CO2)
    molecules:      2.000000e+02 molecules  (2.000000e+02 +/- 0.000000e+00)
    number density: 1.504769e-02 molec./A^3 (1.515688e-02 +/- 0.000000e+00)
    density:        1.099410e+03 kg/m^3     (1.107388e+03 +/- 0.000000e+00)

Average pressure tensor: 
-------------------------------------------------------------------------------
 2.0008e+02  1.2143e+02  9.6222e+01 +/- 0.0000e+00 0.0000e+00 0.0000e+00 [bar]
 1.2143e+02  1.6101e+02 -4.2534e+01 +/- 0.0000e+00 0.0000e+00 0.0000e+00 [bar]
 9.6222e+01 -4.2534e+01  2.3318e+02 +/- 0.0000e+00 0.0000e+00 0.0000e+00 [bar]
Ideal-gas pressure:   5.231589e+02 +/ 0.000000e+00 [bar]
Excess pressure:     -3.250676e+02 +/ 0.000000e+00 [bar]
Pressure:             1.980914e+02 +/ 0.000000e+00 [bar]

Total potential energy/kʙ  -3.178567e+05 (-3.212675e+05 +/- 0.000000e+00) [K]
-------------------------------------------------------------------------------
ExternalField-molecule
    Van der Waals/kʙ        0.000000e+00 ( 0.000000e+00 +/- 0.000000e+00) [K]
Framework-molecule
    Van der Waals/kʙ        0.000000e+00 ( 0.000000e+00 +/- 0.000000e+00) [K]
    Van der Waals (Tail)/kʙ 0.000000e+00 ( 0.000000e+00 +/- 0.000000e+00) [K]
    Coulombic Real/kʙ       0.000000e+00 ( 0.000000e+00 +/- 0.000000e+00) [K]
    Coulombic Fourier/kʙ    0.000000e+00 ( 0.000000e+00 +/- 0.000000e+00) [K]
Molecule-molecule
    Van der Waals/kʙ       -2.275923e+05 (-2.298581e+05 +/- 0.000000e+00) [K]
    Van der Waals (Tail)/kʙ-7.255662e+03 (-7.305034e+03 +/- 0.000000e+00) [K]
    Coulombic Real/kʙ      -7.241922e+04 (-7.363090e+04 +/- 0.000000e+00) [K]
    Coulombic Fourier/kʙ   -1.058959e+04 (-1.047345e+04 +/- 0.000000e+00) [K]
    Molecule Intra/kʙ       0.000000e+00 ( 0.000000e+00 +/- 0.000000e+00) [K]

Current cycle: 1200 out of 5000
===============================================================================

Box:      23.91835   0.00000   0.00000  Average:  23.63215   0.00000   0.00000
           0.00000  23.91835   0.00000             0.00000  23.63215   0.00000
           0.00000   0.00000  23.91835             0.00000   0.00000  23.63215
Lengths:  23.91835  23.91835  23.91835  Average:  23.63215  23.63215  23.63215
Angles:   90.00000  90.00000  90.00000  Average:  90.00000  90.00000  90.00000
Rectangular boundary conditions

net charge:   0.00000000

component 0 (CO2) lambda:  0 occupancy:  1 (1.000000)
    net charge:   0.00000000 [e]

Amount of molecules per component :
-------------------------------------------------------------------------------
Component 0 (CO2)
    molecules:      2.000000e+02 molecules  (2.000000e+02 +/- 0.000000e+00)
    number density: 1.461627e-02 molec./A^3 (1.515623e-02 +/- 0.000000e+00)
    density:        1.067889e+03 kg/m^3     (1.107340e+03 +/- 0.000000e+00)

Average pressure tensor: 
-------------------------------------------------------------------------------
 1.8982e+02  1.2426e+02  1.0584e+02 +/- 0.0000e+00 0.0000e+00 0.0000e+00 [bar]
 1.2426e+02  1.5427e+02 -3.1772e+01 +/- 0.0000e+00 0.0000e+00 0.0000e+00 [bar]
 1.0584e+02 -3.1772e+01  2.4420e+02 +/- 0.0000e+00 0.0000e+00 0.0000e+00 [bar]
Ideal-gas pressure:   5.231363e+02 +/ 0.000000e+00 [bar]
Excess pressure:     -3.270363e+02 +/ 0.000000e+00 [bar]
Pressure:             1.961000e+02 +/ 0.000000e+00 [bar]

Total potential energy/kʙ  -3.066090e+05 (-3.211736e+05 +/- 0.000000e+00) [K]
-------------------------------------------------------------------------------
ExternalField-molecule
    Van der Waals/kʙ        0.000000e+00 ( 0.000000e+00 +/- 0.000000e+00) [K]
Framework-molecule
    Van der Waals/kʙ        0.000000e+00 ( 0.000000e+00 +/- 0.000000e+00) [K]
    Van der Waals (Tail)/kʙ 0.000000e+00 ( 0.000000e+00 +/- 0.000000e+00) [K]
    Coulombic Real/kʙ       0.000000e+00 ( 0.000000e+00 +/- 0.000000e+00) [K]
    Coulombic Fourier/kʙ    0.000000e+00 ( 0.000000e+00 +/- 0.000000e+00) [K]
Molecule-molecule
    Van der Waals/kʙ       -2.176274e+05 (-2.297075e+05 +/- 0.000000e+00) [K]
    Van der Waals (Tail)/kʙ-7.047640e+03 (-7.303981e+03 +/- 0.000000e+00) [K]
    Coulombic Real/kʙ      -7.177769e+04 (-7.369314e+04 +/- 0.000000e+00) [K]
    Coulombic Fourier/kʙ   -1.015631e+04 (-1.046899e+04 +/- 0.000000e+00) [K]
    Molecule Intra/kʙ       0.000000e+00 ( 0.000000e+00 +/- 0.000000e+00) [K]

Current cycle: 1300 out of 5000
===============================================================================

Box:      23.69720   0.00000   0.00000  Average:  23.64762   0.00000   0.00000
           0.00000  23.69720   0.00000             0.00000  23.64762   0.00000
           0.00000   0.00000  23.69720             0.00000   0.00000  23.64762
Lengths:  23.69720  23.69720  23.69720  Average:  23.64762  23.64762  23.64762
Angles:   90.00000  90.00000  90.00000  Average:  90.00000  90.00000  90.00000
Rectangular boundary conditions

net charge:   0.00000000

component 0 (CO2) lambda:  0 occupancy:  1 (1.000000)
    net charge:   0.00000000 [e]

Amount of molecules per component :
-------------------------------------------------------------------------------
Component 0 (CO2)
    molecules:      2.000000e+02 molecules  (2.000000e+02 +/- 0.000000e+00)
    number density: 1.502931e-02 molec./A^3 (1.512690e-02 +/- 0.000000e+00)
    density:        1.098067e+03 kg/m^3     (1.105197e+03 +/- 0.000000e+00)

Average pressure tensor: 
-------------------------------------------------------------------------------
 1.8684e+02  1.1569e+02  1.1842e+02 +/- 0.0000e+00 0.0000e+00 0.0000e+00 [bar]
 1.1569e+02  1.7039e+02 -3.3272e+01 +/- 0.0000e+00 0.0000e+00 0.0000e+00 [bar]
 1.1842e+02 -3.3272e+01  2.4700e+02 +/- 0.0000e+00 0.0000e+00 0.0000e+00 [bar]
Ideal-gas pressure:   5.221240e+02 +/ 0.000000e+00 [bar]
Excess pressure:     -3.207135e+02 +/ 0.000000e+00 [bar]
Pressure:             2.014105e+02 +/ 0.000000e+00 [bar]

Total potential energy/kʙ  -3.126458e+05 (-3.203499e+05 +/- 0.000000e+00) [K]
-------------------------------------------------------------------------------
ExternalField-molecule
    Van der Waals/kʙ        0.000000e+00 ( 0.000000e+00 +/- 0.000000e+00) [K]
Framework-molecule
    Van der Waals/kʙ        0.000000e+00 ( 0.000000e+00 +/- 0.000000e+00) [K]
    Van der Waals (Tail)/kʙ 0.000000e+00 ( 0.000000e+00 +/- 0.000000e+00) [K]
    Coulombic Real/kʙ       0.000000e+00 ( 0.000000e+00 +/- 0.000000e+00) [K]
    Coulombic Fourier/kʙ    0.000000e+00 ( 0.000000e+00 +/- 0.000000e+00) [K]
Molecule-molecule
    Van der Waals/kʙ       -2.240120e+05 (-2.291887e+05 +/- 0.000000e+00) [K]
    Van der Waals (Tail)/kʙ-7.246799e+03 (-7.291710e+03 +/- 0.000000e+00) [K]
    Coulombic Real/kʙ      -7.121432e+04 (-7.341981e+04 +/- 0.000000e+00) [K]
    Coulombic Fourier/kʙ   -1.017268e+04 (-1.044970e+04 +/- 0.000000e+00) [K]
    Molecule Intra/kʙ       0.000000e+00 ( 0.000000e+00 +/- 0.000000e+00) [K]

Current cycle: 1400 out of 5000
===============================================================================

Box:      23.61041   0.00000   0.00000  Average:  23.65371   0.00000   0.00000
           0.00000  23.61041   0.00000             0.00000  23.65371   0.00000
           0.00000   0.00000  23.61041             0.00000   0.00000  23.65371
Lengths:  23.61041  23.61041  23.61041  Average:  23.65371  23.65371  23.65371
Angles:   90.00000  90.00000  90.00000  Average:  90.00000  90.00000  90.00000
Rectangular boundary conditions

net charge:   0.00000000

component 0 (CO2) lambda:  0 occupancy:  1 (1.000000)
    net charge:   0.00000000 [e]

Amount of molecules per component :
-------------------------------------------------------------------------------
Component 0 (CO2)
    molecules:      2.000000e+02 molecules  (2.000000e+02 +/- 0.000000e+00)
    number density: 1.519566e-02 molec./A^3 (1.511517e-02 +/- 0.000000e+00)
    density:        1.110221e+03 kg/m^3     (1.104340e+03 +/- 0.000000e+00)

Average pressure tensor: 
-------------------------------------------------------------------------------
 1.9278e+02  1.0124e+02  1.1669e+02 +/- 0.0000e+00 0.0000e+00 0.0000e+00 [bar]
 1.0124e+02  1.8238e+02 -3.5543e+01 +/- 0.0000e+00 0.0000e+00 0.0000e+00 [bar]
 1.1669e+02 -3.5543e+01  2.6728e+02 +/- 0.0000e+00 0.0000e+00 0.0000e+00 [bar]
Ideal-gas pressure:   5.217191e+02 +/ 0.000000e+00 [bar]
Excess pressure:     -3.075712e+02 +/ 0.000000e+00 [bar]
Pressure:             2.141479e+02 +/ 0.000000e+00 [bar]

Total potential energy/kʙ  -3.106688e+05 (-3.199350e+05 +/- 0.000000e+00) [K]
-------------------------------------------------------------------------------
ExternalField-molecule
    Van der Waals/kʙ        0.000000e+00 ( 0.000000e+00 +/- 0.000000e+00) [K]
Framework-molecule
    Van der Waals/kʙ        0.000000e+00 ( 0.000000e+00 +/- 0.000000e+00) [K]
    Van der Waals (Tail)/kʙ 0.000000e+00 ( 0.000000e+00 +/- 0.000000e+00) [K]
    Coulombic Real/kʙ       0.000000e+00 ( 0.000000e+00 +/- 0.000000e+00) [K]
    Coulombic Fourier/kʙ    0.000000e+00 ( 0.000000e+00 +/- 0.000000e+00) [K]
Molecule-molecule
    Van der Waals/kʙ       -2.254849e+05 (-2.287370e+05 +/- 0.000000e+00) [K]
    Van der Waals (Tail)/kʙ-7.327012e+03 (-7.288311e+03 +/- 0.000000e+00) [K]
    Coulombic Real/kʙ      -6.816919e+04 (-7.347718e+04 +/- 0.000000e+00) [K]
    Coulombic Fourier/kʙ   -9.687722e+03 (-1.043253e+04 +/- 0.000000e+00) [K]
    Molecule Intra/kʙ       0.000000e+00 ( 0.000000e+00 +/- 0.000000e+00) [K]

Current cycle: 1500 out of 5000
===============================================================================

Box:      23.87170   0.00000   0.00000  Average:  23.65758   0.00000   0.00000
           0.00000  23.87170   0.00000             0.00000  23.65758   0.00000
           0.00000   0.00000  23.87170             0.00000   0.00000  23.65758
Lengths:  23.87170  23.87170  23.87170  Average:  23.65758  23.65758  23.65758
Angles:   90.00000  90.00000  90.00000  Average:  90.00000  90.00000  90.00000
Rectangular boundary conditions

net charge:   0.00000000

component 0 (CO2) lambda:  0 occupancy:  1 (1.000000)
    net charge:   0.00000000 [e]

Amount of molecules per component :
-------------------------------------------------------------------------------
Component 0 (CO2)
    molecules:      2.000000e+02 molecules  (2.000000e+02 +/- 0.000000e+00)
    number density: 1.470212e-02 molec./A^3 (1.510768e-02 +/- 0.000000e+00)
    density:        1.074162e+03 kg/m^3     (1.103793e+03 +/- 0.000000e+00)

Average pressure tensor: 
-------------------------------------------------------------------------------
 1.9242e+02  9.7191e+01  1.1152e+02 +/- 0.0000e+00 0.0000e+00 0.0000e+00 [bar]
 9.7191e+01  1.9386e+02 -3.8467e+01 +/- 0.0000e+00 0.0000e+00 0.0000e+00 [bar]
 1.1152e+02 -3.8467e+01  2.6881e+02 +/- 0.0000e+00 0.0000e+00 0.0000e+00 [bar]
Ideal-gas pressure:   5.214605e+02 +/ 0.000000e+00 [bar]
Excess pressure:     -3.030964e+02 +/ 0.000000e+00 [bar]
Pressure:             2.183642e+02 +/ 0.000000e+00 [bar]

Total potential energy/kʙ  -3.130856e+05 (-3.193091e+05 +/- 0.000000e+00) [K]
-------------------------------------------------------------------------------
ExternalField-molecule
    Van der Waals/kʙ        0.000000e+00 ( 0.000000e+00 +/- 0.000000e+00) [K]
Framework-molecule
    Van der Waals/kʙ        0.000000e+00 ( 0.000000e+00 +/- 0.000000e+00) [K]
    Van der Waals (Tail)/kʙ 0.000000e+00 ( 0.000000e+00 +/- 0.000000e+00) [K]
    Coulombic Real/kʙ       0.000000e+00 ( 0.000000e+00 +/- 0.000000e+00) [K]
    Coulombic Fourier/kʙ    0.000000e+00 ( 0.000000e+00 +/- 0.000000e+00) [K]
Molecule-molecule
    Van der Waals/kʙ       -2.234217e+05 (-2.286198e+05 +/- 0.000000e+00) [K]
    Van der Waals (Tail)/kʙ-7.089036e+03 (-7.284441e+03 +/- 0.000000e+00) [K]
    Coulombic Real/kʙ      -7.227782e+04 (-7.299217e+04 +/- 0.000000e+00) [K]
    Coulombic Fourier/kʙ   -1.029706e+04 (-1.041267e+04 +/- 0.000000e+00) [K]
    Molecule Intra/kʙ       0.000000e+00 ( 0.000000e+00 +/- 0.000000e+00) [K]

Current cycle: 1600 out of 5000
===============================================================================

Box:      23.99034   0.00000   0.00000  Average:  23.68064   0.00000   0.00000
           0.00000  23.99034   0.00000             0.00000  23.68064   0.00000
           0.00000   0.00000  23.99034             0.00000   0.00000  23.68064
Lengths:  23.99034  23.99034  23.99034  Average:  23.68064  23.68064  23.68064
Angles:   90.00000  90.00000  90.00000  Average:  90.00000  90.00000  90.00000
Rectangular boundary conditions

net charge:   0.00000000

component 0 (CO2) lambda:  0 occupancy:  1 (1.000000)
    net charge:   0.00000000 [e]

Amount of molecules per component :
-------------------------------------------------------------------------------
Component 0 (CO2)
    molecules:      2.000000e+02 molecules  (2.000000e+02 +/- 0.000000e+00)
    number density: 1.448507e-02 molec./A^3 (1.506486e-02 +/- 0.000000e+00)
    density:        1.058304e+03 kg/m^3     (1.100665e+03 +/- 0.000000e+00)

Average pressure tensor: 
-------------------------------------------------------------------------------
 1.8733e+02  9.4668e+01  1.0302e+02 +/- 0.0000e+00 0.0000e+00 0.0000e+00 [bar]
 9.4668e+01  2.0091e+02 -3.0747e+01 +/- 0.0000e+00 0.0000e+00 0.0000e+00 [bar]
 1.0302e+02 -3.0747e+01  2.5776e+02 +/- 0.0000e+00 0.0000e+00 0.0000e+00 [bar]
Ideal-gas pressure:   5.199827e+02 +/ 0.000000e+00 [bar]
Excess pressure:     -3.046504e+02 +/ 0.000000e+00 [bar]
Pressure:             2.153322e+02 +/ 0.000000e+00 [bar]

Total potential energy/kʙ  -3.012286e+05 (-3.182419e+05 +/- 0.000000e+00) [K]
-------------------------------------------------------------------------------
ExternalField-molecule
    Van der Waals/kʙ        0.000000e+00 ( 0.000000e+00 +/- 0.000000e+00) [K]
Framework-molecule
    Van der Waals/kʙ        0.000000e+00 ( 0.000000e+00 +/- 0.000000e+00) [K]
    Van der Waals (Tail)/kʙ 0.000000e+00 ( 0.000000e+00 +/- 0.000000e+00) [K]
    Coulombic Real/kʙ       0.000000e+00 ( 0.000000e+00 +/- 0.000000e+00) [K]
    Coulombic Fourier/kʙ    0.000000e+00 ( 0.000000e+00 +/- 0.000000e+00) [K]
Molecule-molecule
    Van der Waals/kʙ       -2.144269e+05 (-2.278762e+05 +/- 0.000000e+00) [K]
    Van der Waals (Tail)/kʙ-6.984382e+03 (-7.265386e+03 +/- 0.000000e+00) [K]
    Coulombic Real/kʙ      -6.968298e+04 (-7.268795e+04 +/- 0.000000e+00) [K]
    Coulombic Fourier/kʙ   -1.013440e+04 (-1.041235e+04 +/- 0.000000e+00) [K]
    Molecule Intra/kʙ       0.000000e+00 ( 0.000000e+00 +/- 0.000000e+00) [K]

Current cycle: 1700 out of 5000
===============================================================================

Box:      23.82915   0.00000   0.00000  Average:  23.69930   0.00000   0.00000
           0.00000  23.82915   0.00000             0.00000  23.69930   0.00000
           0.00000   0.00000  23.82915             0.00000   0.00000  23.69930
Lengths:  23.82915  23.82915  23.82915  Average:  23.69930  23.69930  23.69930
Angles:   90.00000  90.00000  90.00000  Average:  90.00000  90.00000  90.00000
Rectangular boundary conditions

net charge:   0.00000000

component 0 (CO2) lambda:  0 occupancy:  1 (1.000000)
    net charge:   0.00000000 [e]

Amount of molecules per component :
-------------------------------------------------------------------------------
Component 0 (CO2)
    molecules:      2.000000e+02 molecules  (2.000000e+02 +/- 0.000000e+00)
    number density: 1.478102e-02 molec./A^3 (1.503003e-02 +/- 0.000000e+00)
    density:        1.079927e+03 kg/m^3     (1.098120e+03 +/- 0.000000e+00)

Average pressure tensor: 
-------------------------------------------------------------------------------
 1.7650e+02  9.2615e+01  1.1096e+02 +/- 0.0000e+00 0.0000e+00 0.0000e+00 [bar]
 9.2615e+01  1.8927e+02 -2.2756e+01 +/- 0.0000e+00 0.0000e+00 0.0000e+00 [bar]
 1.1096e+02 -2.2756e+01  2.5155e+02 +/- 0.0000e+00 0.0000e+00 0.0000e+00 [bar]
Ideal-gas pressure:   5.187804e+02 +/ 0.000000e+00 [bar]
Excess pressure:     -3.130098e+02 +/ 0.000000e+00 [bar]
Pressure:             2.057706e+02 +/ 0.000000e+00 [bar]

Total potential energy/kʙ  -3.012691e+05 (-3.172663e+05 +/- 0.000000e+00) [K]
-------------------------------------------------------------------------------
ExternalField-molecule
    Van der Waals/kʙ        0.000000e+00 ( 0.000000e+00 +/- 0.000000e+00) [K]
Framework-molecule
    Van der Waals/kʙ        0.000000e+00 ( 0.000000e+00 +/- 0.000000e+00) [K]
    Van der Waals (Tail)/kʙ 0.000000e+00 ( 0.000000e+00 +/- 0.000000e+00) [K]
    Coulombic Real/kʙ       0.000000e+00 ( 0.000000e+00 +/- 0.000000e+00) [K]
    Coulombic Fourier/kʙ    0.000000e+00 ( 0.000000e+00 +/- 0.000000e+00) [K]
Molecule-molecule
    Van der Waals/kʙ       -2.189758e+05 (-2.273443e+05 +/- 0.000000e+00) [K]
    Van der Waals (Tail)/kʙ-7.127082e+03 (-7.247852e+03 +/- 0.000000e+00) [K]
    Coulombic Real/kʙ      -6.528331e+04 (-7.229009e+04 +/- 0.000000e+00) [K]
    Coulombic Fourier/kʙ   -9.882896e+03 (-1.038398e+04 +/- 0.000000e+00) [K]
    Molecule Intra/kʙ       0.000000e+00 ( 0.000000e+00 +/- 0.000000e+00) [K]

Current cycle: 1800 out of 5000
===============================================================================

Box:      23.80839   0.00000   0.00000  Average:  23.70301   0.00000   0.00000
           0.00000  23.80839   0.00000             0.00000  23.70301   0.00000
           0.00000   0.00000  23.80839             0.00000   0.00000  23.70301
Lengths:  23.80839  23.80839  23.80839  Average:  23.70301  23.70301  23.70301
Angles:   90.00000  90.00000  90.00000  Average:  90.00000  90.00000  90.00000
Rectangular boundary conditions

net charge:   0.00000000

component 0 (CO2) lambda:  0 occupancy:  1 (1.000000)
    net charge:   0.00000000 [e]

Amount of molecules per component :
-------------------------------------------------------------------------------
Component 0 (CO2)
    molecules:      2.000000e+02 molecules  (2.000000e+02 +/- 0.000000e+00)
    number density: 1.481971e-02 molec./A^3 (1.502280e-02 +/- 0.000000e+00)
    density:        1.082754e+03 kg/m^3     (1.097591e+03 +/- 0.000000e+00)

Average pressure tensor: 
-------------------------------------------------------------------------------
 1.9399e+02  9.1943e+01  1.1321e+02 +/- 0.0000e+00 0.0000e+00 0.0000e+00 [bar]
 9.1943e+01  1.8274e+02 -2.3380e+01 +/- 0.0000e+00 0.0000e+00 0.0000e+00 [bar]
 1.1321e+02 -2.3380e+01  2.5179e+02 +/- 0.0000e+00 0.0000e+00 0.0000e+00 [bar]
Ideal-gas pressure:   5.185307e+02 +/ 0.000000e+00 [bar]
Excess pressure:     -3.090220e+02 +/ 0.000000e+00 [bar]
Pressure:             2.095087e+02 +/ 0.000000e+00 [bar]

Total potential energy/kʙ  -3.155197e+05 (-3.170974e+05 +/- 0.000000e+00) [K]
-------------------------------------------------------------------------------
ExternalField-molecule
    Van der Waals/kʙ        0.000000e+00 ( 0.000000e+00 +/- 0.000000e+00) [K]
Framework-molecule
    Van der Waals/kʙ        0.000000e+00 ( 0.000000e+00 +/- 0.000000e+00) [K]
    Van der Waals (Tail)/kʙ 0.000000e+00 ( 0.000000e+00 +/- 0.000000e+00) [K]
    Coulombic Real/kʙ       0.000000e+00 ( 0.000000e+00 +/- 0.000000e+00) [K]
    Coulombic Fourier/kʙ    0.000000e+00 ( 0.000000e+00 +/- 0.000000e+00) [K]
Molecule-molecule
    Van der Waals/kʙ       -2.261224e+05 (-2.271843e+05 +/- 0.000000e+00) [K]
    Van der Waals (Tail)/kʙ-7.145738e+03 (-7.243788e+03 +/- 0.000000e+00) [K]
    Coulombic Real/kʙ      -7.159746e+04 (-7.226509e+04 +/- 0.000000e+00) [K]
    Coulombic Fourier/kʙ   -1.065410e+04 (-1.040428e+04 +/- 0.000000e+00) [K]
    Molecule Intra/kʙ       0.000000e+00 ( 0.000000e+00 +/- 0.000000e+00) [K]

Current cycle: 1900 out of 5000
===============================================================================

Box:      23.73188   0.00000   0.00000  Average:  23.70712   0.00000   0.00000
           0.00000  23.73188   0.00000             0.00000  23.70712   0.00000
           0.00000   0.00000  23.73188             0.00000   0.00000  23.70712
Lengths:  23.73188  23.73188  23.73188  Average:  23.70712  23.70712  23.70712
Angles:   90.00000  90.00000  90.00000  Average:  90.00000  90.00000  90.00000
Rectangular boundary conditions

net charge:   0.00000000

component 0 (CO2) lambda:  0 occupancy:  1 (1.000000)
    net charge:   0.00000000 [e]

Amount of molecules per component :
-------------------------------------------------------------------------------
Component 0 (CO2)
    molecules:      2.000000e+02 molecules  (2.000000e+02 +/- 0.000000e+00)
    number density: 1.496352e-02 molec./A^3 (1.501486e-02 +/- 0.000000e+00)
    density:        1.093260e+03 kg/m^3     (1.097011e+03 +/- 0.000000e+00)

Average pressure tensor: 
-------------------------------------------------------------------------------
 2.1020e+02  9.8775e+01  1.0704e+02 +/- 0.0000e+00 0.0000e+00 0.0000e+00 [bar]
 9.8775e+01  1.7596e+02 -9.9534e+00 +/- 0.0000e+00 0.0000e+00 0.0000e+00 [bar]
 1.0704e+02 -9.9534e+00  2.4185e+02 +/- 0.0000e+00 0.0000e+00 0.0000e+00 [bar]
Ideal-gas pressure:   5.182567e+02 +/ 0.000000e+00 [bar]
Excess pressure:     -3.089193e+02 +/ 0.000000e+00 [bar]
Pressure:             2.093374e+02 +/ 0.000000e+00 [bar]

Total potential energy/kʙ  -3.197060e+05 (-3.170443e+05 +/- 0.000000e+00) [K]
-------------------------------------------------------------------------------
ExternalField-molecule
    Van der Waals/kʙ        0.000000e+00 ( 0.000000e+00 +/- 0.000000e+00) [K]
Framework-molecule
    Van der Waals/kʙ        0.000000e+00 ( 0.000000e+00 +/- 0.000000e+00) [K]
    Van der Waals (Tail)/kʙ 0.000000e+00 ( 0.000000e+00 +/- 0.000000e+00) [K]
    Coulombic Real/kʙ       0.000000e+00 ( 0.000000e+00 +/- 0.000000e+00) [K]
    Coulombic Fourier/kʙ    0.000000e+00 ( 0.000000e+00 +/- 0.000000e+00) [K]
Molecule-molecule
    Van der Waals/kʙ       -2.229404e+05 (-2.271166e+05 +/- 0.000000e+00) [K]
    Van der Waals (Tail)/kʙ-7.215078e+03 (-7.239880e+03 +/- 0.000000e+00) [K]
    Coulombic Real/kʙ      -7.827843e+04 (-7.227299e+04 +/- 0.000000e+00) [K]
    Coulombic Fourier/kʙ   -1.127206e+04 (-1.041480e+04 +/- 0.000000e+00) [K]
    Molecule Intra/kʙ       0.000000e+00 ( 0.000000e+00 +/- 0.000000e+00) [K]

Current cycle: 2000 out of 5000
===============================================================================

Box:      23.82979   0.00000   0.00000  Average:  23.70702   0.00000   0.00000
           0.00000  23.82979   0.00000             0.00000  23.70702   0.00000
           0.00000   0.00000  23.82979             0.00000   0.00000  23.70702
Lengths:  23.82979  23.82979  23.82979  Average:  23.70702  23.70702  23.70702
Angles:   90.00000  90.00000  90.00000  Average:  90.00000  90.00000  90.00000
Rectangular boundary conditions

net charge:   0.00000000

component 0 (CO2) lambda:  0 occupancy:  1 (1.000000)
    net charge:   0.00000000 [e]

Amount of molecules per component :
-------------------------------------------------------------------------------
Component 0 (CO2)
    molecules:      2.000000e+02 molecules  (2.000000e+02 +/- 0.000000e+00)
    number density: 1.477983e-02 molec./A^3 (1.501487e-02 +/- 0.000000e+00)
    density:        1.079840e+03 kg/m^3     (1.097012e+03 +/- 0.000000e+00)

Average pressure tensor: 
-------------------------------------------------------------------------------
 2.0381e+02  8.8189e+01  1.0458e+02 +/- 0.0000e+00 0.0000e+00 0.0000e+00 [bar]
 8.8189e+01  1.7087e+02 -1.3036e+01 +/- 0.0000e+00 0.0000e+00 0.0000e+00 [bar]
 1.0458e+02 -1.3036e+01  2.4178e+02 +/- 0.0000e+00 0.0000e+00 0.0000e+00 [bar]
Ideal-gas pressure:   5.182573e+02 +/ 0.000000e+00 [bar]
Excess pressure:     -3.127728e+02 +/ 0.000000e+00 [bar]
Pressure:             2.054845e+02 +/ 0.000000e+00 [bar]

Total potential energy/kʙ  -3.167382e+05 (-3.171711e+05 +/- 0.000000e+00) [K]
-------------------------------------------------------------------------------
ExternalField-molecule
    Van der Waals/kʙ        0.000000e+00 ( 0.000000e+00 +/- 0.000000e+00) [K]
Framework-molecule
    Van der Waals/kʙ        0.000000e+00 ( 0.000000e+00 +/- 0.000000e+00) [K]
    Van der Waals (Tail)/kʙ 0.000000e+00 ( 0.000000e+00 +/- 0.000000e+00) [K]
    Coulombic Real/kʙ       0.000000e+00 ( 0.000000e+00 +/- 0.000000e+00) [K]
    Coulombic Fourier/kʙ    0.000000e+00 ( 0.000000e+00 +/- 0.000000e+00) [K]
Molecule-molecule
    Van der Waals/kʙ       -2.250514e+05 (-2.271008e+05 +/- 0.000000e+00) [K]
    Van der Waals (Tail)/kʙ-7.126506e+03 (-7.238644e+03 +/- 0.000000e+00) [K]
    Coulombic Real/kʙ      -7.384658e+04 (-7.238459e+04 +/- 0.000000e+00) [K]
    Coulombic Fourier/kʙ   -1.071365e+04 (-1.044712e+04 +/- 0.000000e+00) [K]
    Molecule Intra/kʙ       0.000000e+00 ( 0.000000e+00 +/- 0.000000e+00) [K]

Current cycle: 2100 out of 5000
===============================================================================

Box:      23.62706   0.00000   0.00000  Average:  23.70676   0.00000   0.00000
           0.00000  23.62706   0.00000             0.00000  23.70676   0.00000
           0.00000   0.00000  23.62706             0.00000   0.00000  23.70676
Lengths:  23.62706  23.62706  23.62706  Average:  23.70676  23.70676  23.70676
Angles:   90.00000  90.00000  90.00000  Average:  90.00000  90.00000  90.00000
Rectangular boundary conditions

net charge:   0.00000000

component 0 (CO2) lambda:  0 occupancy:  1 (1.000000)
    net charge:   0.00000000 [e]

Amount of molecules per component :
-------------------------------------------------------------------------------
Component 0 (CO2)
    molecules:      2.000000e+02 molecules  (2.000000e+02 +/- 0.000000e+00)
    number density: 1.516355e-02 molec./A^3 (1.501528e-02 +/- 0.000000e+00)
    density:        1.107875e+03 kg/m^3     (1.097042e+03 +/- 0.000000e+00)

Average pressure tensor: 
-------------------------------------------------------------------------------
 1.9859e+02  8.6731e+01  1.0400e+02 +/- 0.0000e+00 0.0000e+00 0.0000e+00 [bar]
 8.6731e+01  1.7950e+02 -7.2501e+00 +/- 0.0000e+00 0.0000e+00 0.0000e+00 [bar]
 1.0400e+02 -7.2501e+00  2.4154e+02 +/- 0.0000e+00 0.0000e+00 0.0000e+00 [bar]
Ideal-gas pressure:   5.182711e+02 +/ 0.000000e+00 [bar]
Excess pressure:     -3.117269e+02 +/ 0.000000e+00 [bar]
Pressure:             2.065442e+02 +/ 0.000000e+00 [bar]

Total potential energy/kʙ  -3.223596e+05 (-3.171750e+05 +/- 0.000000e+00) [K]
-------------------------------------------------------------------------------
ExternalField-molecule
    Van der Waals/kʙ        0.000000e+00 ( 0.000000e+00 +/- 0.000000e+00) [K]
Framework-molecule
    Van der Waals/kʙ        0.000000e+00 ( 0.000000e+00 +/- 0.000000e+00) [K]
    Van der Waals (Tail)/kʙ 0.000000e+00 ( 0.000000e+00 +/- 0.000000e+00) [K]
[...]
    Coulombic Fourier/kʙ    0.000000e+00 ( 0.000000e+00 +/- 0.000000e+00) [K]
Molecule-molecule
    Van der Waals/kʙ       -2.225562e+05 (-2.280843e+05 +/- 5.451493e+03) [K]
    Van der Waals (Tail)/kʙ-7.026952e+03 (-7.258718e+03 +/- 1.631163e+02) [K]
    Coulombic Real/kʙ      -6.756057e+04 (-7.229478e+04 +/- 3.098268e+03) [K]
    Coulombic Fourier/kʙ   -1.050816e+04 (-1.051299e+04 +/- 4.130116e+02) [K]
    Molecule Intra/kʙ       0.000000e+00 ( 0.000000e+00 +/- 0.000000e+00) [K]

Current cycle: 4700 out of 5000
===============================================================================

Box:      23.55380   0.00000   0.00000  Average:  23.68669   0.00000   0.00000
           0.00000  23.55380   0.00000             0.00000  23.68669   0.00000
           0.00000   0.00000  23.55380             0.00000   0.00000  23.68669
Lengths:  23.55380  23.55380  23.55380  Average:  23.68669  23.68669  23.68669
Angles:   90.00000  90.00000  90.00000  Average:  90.00000  90.00000  90.00000
Rectangular boundary conditions

net charge:   0.00000000

component 0 (CO2) lambda:  0 occupancy:  1 (1.000000)
    net charge:   0.00000000 [e]

Amount of molecules per component :
-------------------------------------------------------------------------------
Component 0 (CO2)
    molecules:      2.000000e+02 molecules  (2.000000e+02 +/- 0.000000e+00)
    number density: 1.530548e-02 molec./A^3 (1.505569e-02 +/- 3.112666e-04)
    density:        1.118244e+03 kg/m^3     (1.099994e+03 +/- 2.274167e+01)

Average pressure tensor: 
-------------------------------------------------------------------------------
 1.9911e+02  3.5586e+01  6.1782e+01 +/- 3.1610e+01 8.3745e+01 7.7072e+01 [bar]
 3.5586e+01  2.0259e+02  2.2367e+00 +/- 8.3745e+01 6.7747e+01 5.5982e+01 [bar]
 6.1782e+01  2.2367e+00  1.8768e+02 +/- 7.7072e+01 5.5982e+01 7.3731e+01 [bar]
Ideal-gas pressure:   5.196660e+02 +/ 1.074376e+01 [bar]
Excess pressure:     -3.232073e+02 +/ 2.173362e+01 [bar]
Pressure:             1.964587e+02 +/ 2.168008e+01 [bar]

Total potential energy/kʙ  -3.271601e+05 (-3.181636e+05 +/- 8.247909e+03) [K]
-------------------------------------------------------------------------------
ExternalField-molecule
    Van der Waals/kʙ        0.000000e+00 ( 0.000000e+00 +/- 0.000000e+00) [K]
Framework-molecule
    Van der Waals/kʙ        0.000000e+00 ( 0.000000e+00 +/- 0.000000e+00) [K]
    Van der Waals (Tail)/kʙ 0.000000e+00 ( 0.000000e+00 +/- 0.000000e+00) [K]
    Coulombic Real/kʙ       0.000000e+00 ( 0.000000e+00 +/- 0.000000e+00) [K]
    Coulombic Fourier/kʙ    0.000000e+00 ( 0.000000e+00 +/- 0.000000e+00) [K]
Molecule-molecule
    Van der Waals/kʙ       -2.360980e+05 (-2.281152e+05 +/- 5.000697e+03) [K]
    Van der Waals (Tail)/kʙ-7.379963e+03 (-7.258250e+03 +/- 1.514202e+02) [K]
    Coulombic Real/kʙ      -7.306032e+04 (-7.228422e+04 +/- 2.880581e+03) [K]
    Coulombic Fourier/kʙ   -1.062190e+04 (-1.050597e+04 +/- 4.092537e+02) [K]
    Molecule Intra/kʙ       0.000000e+00 ( 0.000000e+00 +/- 0.000000e+00) [K]

Current cycle: 4800 out of 5000
===============================================================================

Box:      23.40495   0.00000   0.00000  Average:  23.68390   0.00000   0.00000
           0.00000  23.40495   0.00000             0.00000  23.68390   0.00000
           0.00000   0.00000  23.40495             0.00000   0.00000  23.68390
Lengths:  23.40495  23.40495  23.40495  Average:  23.68390  23.68390  23.68390
Angles:   90.00000  90.00000  90.00000  Average:  90.00000  90.00000  90.00000
Rectangular boundary conditions

net charge:   0.00000000

component 0 (CO2) lambda:  0 occupancy:  1 (1.000000)
    net charge:   0.00000000 [e]

Amount of molecules per component :
-------------------------------------------------------------------------------
Component 0 (CO2)
    molecules:      2.000000e+02 molecules  (2.000000e+02 +/- 0.000000e+00)
    number density: 1.559936e-02 molec./A^3 (1.506096e-02 +/- 2.798616e-04)
    density:        1.139716e+03 kg/m^3     (1.100379e+03 +/- 2.044717e+01)

Average pressure tensor: 
-------------------------------------------------------------------------------
 1.9858e+02  3.6080e+01  5.7800e+01 +/- 3.1605e+01 7.7811e+01 8.2159e+01 [bar]
 3.6080e+01  2.0184e+02  3.0044e+00 +/- 7.7811e+01 6.5967e+01 5.6257e+01 [bar]
 5.7800e+01  3.0044e+00  1.8597e+02 +/- 8.2159e+01 5.6257e+01 7.4365e+01 [bar]
Ideal-gas pressure:   5.198479e+02 +/ 9.659775e+00 [bar]
Excess pressure:     -3.243856e+02 +/ 2.248573e+01 [bar]
Pressure:             1.954622e+02 +/ 2.282176e+01 [bar]

Total potential energy/kʙ  -3.316567e+05 (-3.182734e+05 +/- 7.546577e+03) [K]
-------------------------------------------------------------------------------
ExternalField-molecule
    Van der Waals/kʙ        0.000000e+00 ( 0.000000e+00 +/- 0.000000e+00) [K]
Framework-molecule
    Van der Waals/kʙ        0.000000e+00 ( 0.000000e+00 +/- 0.000000e+00) [K]
    Van der Waals (Tail)/kʙ 0.000000e+00 ( 0.000000e+00 +/- 0.000000e+00) [K]
    Coulombic Real/kʙ       0.000000e+00 ( 0.000000e+00 +/- 0.000000e+00) [K]
    Coulombic Fourier/kʙ    0.000000e+00 ( 0.000000e+00 +/- 0.000000e+00) [K]
Molecule-molecule
    Van der Waals/kʙ       -2.325514e+05 (-2.282272e+05 +/- 4.527211e+03) [K]
    Van der Waals (Tail)/kʙ-7.521668e+03 (-7.260934e+03 +/- 1.357734e+02) [K]
    Coulombic Real/kʙ      -8.144041e+04 (-7.228408e+04 +/- 2.702370e+03) [K]
    Coulombic Fourier/kʙ   -1.014316e+04 (-1.050114e+04 +/- 4.028759e+02) [K]
    Molecule Intra/kʙ       0.000000e+00 ( 0.000000e+00 +/- 0.000000e+00) [K]

Current cycle: 4900 out of 5000
===============================================================================

Box:      23.66419   0.00000   0.00000  Average:  23.68349   0.00000   0.00000
           0.00000  23.66419   0.00000             0.00000  23.68349   0.00000
           0.00000   0.00000  23.66419             0.00000   0.00000  23.68349
Lengths:  23.66419  23.66419  23.66419  Average:  23.68349  23.68349  23.68349
Angles:   90.00000  90.00000  90.00000  Average:  90.00000  90.00000  90.00000
Rectangular boundary conditions

net charge:   0.00000000

component 0 (CO2) lambda:  0 occupancy:  1 (1.000000)
    net charge:   0.00000000 [e]

Amount of molecules per component :
-------------------------------------------------------------------------------
Component 0 (CO2)
    molecules:      2.000000e+02 molecules  (2.000000e+02 +/- 0.000000e+00)
    number density: 1.509229e-02 molec./A^3 (1.506165e-02 +/- 2.664007e-04)
    density:        1.102668e+03 kg/m^3     (1.100430e+03 +/- 1.946369e+01)

Average pressure tensor: 
-------------------------------------------------------------------------------
 1.9666e+02  3.5473e+01  5.4731e+01 +/- 3.3982e+01 7.5690e+01 8.4089e+01 [bar]
 3.5473e+01  2.0296e+02  9.0950e-01 +/- 7.5690e+01 6.6435e+01 5.5339e+01 [bar]
 5.4731e+01  9.0950e-01  1.8633e+02 +/- 8.4089e+01 5.5339e+01 7.1515e+01 [bar]
Ideal-gas pressure:   5.198719e+02 +/ 9.195156e+00 [bar]
Excess pressure:     -3.245548e+02 +/ 2.245882e+01 [bar]
Pressure:             1.953171e+02 +/ 2.237825e+01 [bar]

Total potential energy/kʙ  -3.185903e+05 (-3.182696e+05 +/- 7.256699e+03) [K]
-------------------------------------------------------------------------------
ExternalField-molecule
    Van der Waals/kʙ        0.000000e+00 ( 0.000000e+00 +/- 0.000000e+00) [K]
Framework-molecule
    Van der Waals/kʙ        0.000000e+00 ( 0.000000e+00 +/- 0.000000e+00) [K]
    Van der Waals (Tail)/kʙ 0.000000e+00 ( 0.000000e+00 +/- 0.000000e+00) [K]
    Coulombic Real/kʙ       0.000000e+00 ( 0.000000e+00 +/- 0.000000e+00) [K]
    Coulombic Fourier/kʙ    0.000000e+00 ( 0.000000e+00 +/- 0.000000e+00) [K]
Molecule-molecule
    Van der Waals/kʙ       -2.206569e+05 (-2.282150e+05 +/- 4.404797e+03) [K]
    Van der Waals (Tail)/kʙ-7.277167e+03 (-7.261043e+03 +/- 1.296164e+02) [K]
    Coulombic Real/kʙ      -8.007055e+04 (-7.229870e+04 +/- 2.542032e+03) [K]
    Coulombic Fourier/kʙ   -1.058566e+04 (-1.049489e+04 +/- 4.009688e+02) [K]
    Molecule Intra/kʙ       0.000000e+00 ( 0.000000e+00 +/- 0.000000e+00) [K]


Energy statistics             |  Energy [K]   | Recomputed [K]|  Drift [K]    |
===============================================================================
Total potential energy/kʙ     | -3.183311e+05 | -3.183311e+05 |  3.026742e-09 |
    external field VDW/kʙ     |  0.000000e+00 |  0.000000e+00 |  0.000000e+00 |
    external field Real/kʙ    |  0.000000e+00 |  0.000000e+00 |  0.000000e+00 |
    framework-molecule VDW/kʙ |  0.000000e+00 |  0.000000e+00 |  0.000000e+00 |
    framework-molecule Real/kʙ|  0.000000e+00 |  0.000000e+00 |  0.000000e+00 |
    molecule-molecule VDW/kʙ  | -2.270071e+05 | -2.270071e+05 |  3.395377e-09 |
    molecule-molecule Real/kʙ | -7.434905e+04 | -7.434905e+04 | -3.762917e-10 |
    Van der Waals (Tail)/kʙ   | -7.317426e+03 | -7.317426e+03 |  0.000000e+00 |
    Ewald Fourier/kʙ          |  8.495578e+03 |  8.495578e+03 |  7.657100e-12 |
    Ewald self/kʙ             | -4.023739e+06 | -4.023739e+06 |  0.000000e+00 |
    Ewald exclusion/kʙ        |  4.005586e+06 |  4.005586e+06 |  0.000000e+00 |
    intra VDW/kʙ              |  0.000000e+00 |  0.000000e+00 |  0.000000e+00 |
    intra Coulombic/kʙ        |  0.000000e+00 |  0.000000e+00 |  0.000000e+00 |
    polarization/kʙ           |  0.000000e+00 |  0.000000e+00 |  0.000000e+00 |
    dU/dlambda VDW/kʙ         |  0.000000e+00 |  0.000000e+00 |  0.000000e+00 |
    dU/dlambda Real/kʙ        |  0.000000e+00 |  0.000000e+00 |  0.000000e+00 |
    dU/dlambda Ewald/kʙ       |  0.000000e+00 |  0.000000e+00 |  0.000000e+00 |
-------------------------------------------------------------------------------


Monte-Carlo moves statistics
===============================================================================

    Volume change        all:                6533
    Volume change        total:              6533
    Volume change        constructed:        6533
    Volume change        accepted:           3421
    Volume change        fraction:       0.523649
    Volume change        max-change:     0.025000

Component 0 [CO2]
    Reinsertion (CBMC)   all:              331073
    Reinsertion (CBMC)   total:            331073
    Reinsertion (CBMC)   constructed:      281626
    Reinsertion (CBMC)   accepted:           2686
    Reinsertion (CBMC)   fraction:       0.008113
    Reinsertion (CBMC)   max-change:     0.000000

    Translation          all:              330903
    Translation          total:            110633     110223     110047
    Translation          constructed:      110628     110223     110047
    Translation          accepted:          42653      50094      47552
    Translation          fraction:       0.385536   0.454479   0.432106
    Translation          max-change:     0.904348   0.730435   0.772727

    Rotation             all:              331491
    Rotation             total:            110379     111031     110081
    Rotation             constructed:      110379     111031     110081
    Rotation             accepted:          54129      49366      53102
    Rotation             fraction:       0.490392   0.444615   0.482390
    Rotation             max-change:     0.681818   0.785714   0.700000



Production run counting of the MC moves summed over systems and components
===============================================================================

Volume change                          6533 (0.6533 [%])
Reinsertion (CBMC)                   331073 (33.1073 [%])
Translation                          330903 (33.0903 [%])
Rotation                             331491 (33.1491 [%])

Production count MC-steps:          1000000 [-]
               All summed:          1000000 [-]
               difference:                0 [-]


Production run CPU timings of the MC moves
===============================================================================

Component 0 CO2

Rotation                             47.506907 [s]
    Ewald                            18.785420 [s]
    ExternalField-Molecule            0.012183 [s]
    Framework-Molecule                0.012778 [s]
    Molecule-Molecule                27.210401 [s]
    Overhead                          1.486125 [s]

Reinsertion (CBMC)                  189.580861 [s]
    Ewald                            16.024053 [s]
    NonEwald                        173.275396 [s]
    Overhead                          0.281412 [s]

Translation                          47.480442 [s]
    Ewald                            18.732060 [s]
    ExternalField-Molecule            0.011828 [s]
    Framework-Molecule                0.019694 [s]
    Molecule-Molecule                27.362111 [s]
    Overhead                          1.354749 [s]



Volume change                         43.331080 [s]
    Ewald                             14.737295 [s]
    NonEwald                          26.766458 [s]
    Tail                               1.585029 [s]

Property sampling                     0.285503 [s]
Energy/pressure sampling:             6.584557 [s]


Production run CPU timings of the MC moves summed over systems and components
===============================================================================


Translation                          47.480442 [s]
    Ewald                            18.732060 [s]
    ExternalField-Molecule            0.011828 [s]
    Framework-Molecule                0.019694 [s]
    Molecule-Molecule                27.362111 [s]
    Overhead                          1.354749 [s]

Rotation                             47.506907 [s]
    Ewald                            18.785420 [s]
    ExternalField-Molecule            0.012183 [s]
    Framework-Molecule                0.012778 [s]
    Molecule-Molecule                27.210401 [s]
    Overhead                          1.486125 [s]

Volume change                        43.331080 [s]
    Ewald                            14.737295 [s]
    NonEwald                         26.766458 [s]
    Tail                              1.585029 [s]
    Overhead                          0.242298 [s]

Reinsertion (CBMC)                  189.580861 [s]
    Ewald                            16.024053 [s]
    NonEwald                        173.275396 [s]
    Overhead                          0.281412 [s]

Property sampling:                    0.285503 [s]
Energy/pressure sampling:             6.584557 [s]

Production simulation time:         335.534804 [s]
                All summed:         334.769350 [s]
                  Overhead:           0.765454 [s]


Initalization simulation time:       65.375983 [s]
Equilibration simulation time:        0.000000 [s]
Production simulation time:         335.534804 [s]
Total simulation time:              400.910787 [s]


Energy averages and statistics:
===============================================================================

Framework-molecule energy:
-------------------------------------------------------------------------------



Framework-molecule energy contributions per energy type:
-------------------------------------------------------------------------------



Inter-molecular energy:
-------------------------------------------------------------------------------

    Inter-molecular energy/kʙ 0-0 [CO2-CO2]:
    ---------------------------------------------------------------------------
        Block[  0] -3.209871e+05
        Block[  1] -3.133595e+05
        Block[  2] -3.261006e+05
        Block[  3] -3.186472e+05
        Block[  4] -3.123419e+05
        -----------------------------------------------------------------------
        Average  -3.182873e+05 +/-  7.025465e+03 [K]



Inter-molecular energy contributions per energy type:
-------------------------------------------------------------------------------

    Van der Waals energy/kʙ 0-0 [CO2-CO2]:
    ---------------------------------------------------------------------------
        Block[  0] -2.297638e+05
        Block[  1] -2.244583e+05
        Block[  2] -2.326626e+05
        Block[  3] -2.292539e+05
        Block[  4] -2.248958e+05
        -----------------------------------------------------------------------
        Average  -2.282069e+05 +/-  4.317954e+03 [K]

    VDW Tail-Correction energy/kʙ 0-0 [CO2-CO2]:
    ---------------------------------------------------------------------------
        Block[  0] -7.299828e+03
        Block[  1] -7.178581e+03
        Block[  2] -7.400631e+03
        Block[  3] -7.278461e+03
        Block[  4] -7.145774e+03
        -----------------------------------------------------------------------
        Average  -7.260655e+03 +/-  1.262680e+02 [K]

    Coulomb Real energy/kʙ 0-0 [CO2-CO2]:
    ---------------------------------------------------------------------------
        Block[  0] -7.351816e+04
        Block[  1] -7.123640e+04
        Block[  2] -7.501424e+04
        Block[  3] -7.174060e+04
        Block[  4] -7.010436e+04
        -----------------------------------------------------------------------
        Average  -7.232275e+04 +/-  2.413161e+03 [K]

    Coulomb Fourier energy/kʙ 0-0 [CO2-CO2]:
    ---------------------------------------------------------------------------
        Block[  0] -1.040533e+04
        Block[  1] -1.048624e+04
        Block[  2] -1.102313e+04
        Block[  3] -1.037424e+04
        Block[  4] -1.019594e+04
        -----------------------------------------------------------------------
        Average  -1.049698e+04 +/-  3.881635e+02 [K]


Total energy/kʙ
-------------------------------------------------------------------------------
    Block[  0] -3.209871e+05
    Block[  1] -3.133595e+05
    Block[  2] -3.261006e+05
    Block[  3] -3.186472e+05
    Block[  4] -3.123419e+05
    ---------------------------------------------------------------------------
    Average  -3.182873e+05 +/-  7.025465e+03 [K]

Pressure averages and statistics:
===============================================================================

Average pressure tensor: 
-------------------------------------------------------------------------------
 1.9702e+02  3.6896e+01  5.6983e+01 +/- 3.2461e+01 7.0699e+01 7.2578e+01 [bar]
 3.6896e+01  1.9636e+02  3.4886e+00 +/- 7.0699e+01 6.2909e+01 5.6173e+01 [bar]
 5.6983e+01  3.4886e+00  1.9036e+02 +/- 7.2578e+01 5.6173e+01 6.5141e+01 [bar]

    Block[  0]  5.228660e+07
    Block[  1]  5.136566e+07
    Block[  2]  5.296062e+07
    Block[  3]  5.211811e+07
    Block[  4]  5.119960e+07
    ---------------------------------------------------------------------------
    Ideal gas pressure   5.198612e+07 +/-  5.366445e-02 [Pa]
                         5.198612e+02 +/-  8.911198e+00 [bar]


    Block[  0] -3.299161e+07
    Block[  1] -2.953404e+07
    Block[  2] -3.218037e+07
    Block[  3] -3.428199e+07
    Block[  4] -3.365311e+07
    ---------------------------------------------------------------------------
    Excess pressure  -3.252822e+07 +/-  2.292677e+06 [Pa]
                     -3.252822e+02 +/-  2.292677e+01 [bar]


    Block[  0]  1.929500e+07
    Block[  1]  2.183163e+07
    Block[  2]  2.078025e+07
    Block[  3]  1.783612e+07
    Block[  4]  1.754649e+07
    ---------------------------------------------------------------------------
    Pressure average   1.945790e+07 +/-  2.296993e+06 [Pa]
                       1.945790e+02 +/-  2.296993e+01 [bar]


Enthalpy of adsorption
===============================================================================

No fluctuating components present.


Densities
===============================================================================

Component 0 (CO2)
    Block[  0] 200
    Block[  1] 200
    Block[  2] 200
    Block[  3] 200
    Block[  4] 200
    -----------------------------------------------------------------------
    Density average   2.000000e+02 +/-  0.000000e+00 [molecules]
    Density average   1.506134e-02 +/-  2.581739e-04 [molec/A^3]
    Density average   1.100407e+03 +/-  1.886263e+01 [kg.m⁻³]

