Compiler and run-time data
===============================================================================
RASPA 3.0.4

Random seed: 3033019861

Compiled as a 64-bits application
Compiler: gcc Ubuntu Clang 18.1.3 (1ubuntu1)
Compile Date = Mar 15 2025, Compile Time = 19:39:45

2025-06-02 13:21:36.155206
Simulation started on Mon, Jun 02
The start time was 13:21:00

Hostname:    c060
OS type:     Linux on x86_64
OS release:  6.8.0-58-generic
OS version:  #60-Ubuntu SMP PREEMPT_DYNAMIC Fri Mar 14 18:29:48 UTC 2025


Mutual consistent basic set of units:
===============================================================================

Unit of temperature: 1 [K]
Unit of length:      1e-10 [m]
Unit of time:        1e-12 [s]
Unit of mass:        1.6605402e-27 [kg]
Unit of charge:      1.60217733e-19 [C/particle]


Boltzmann constant (internal units):          0.8314464919307584 [-]
represents conversion from energy (internal units) to temperature (in Kelvin)

Derived units and their conversion factors:
===============================================================================

Unit of energy:                           1.6605402000000002e-23 [J]
Unit of energy:                           10.000008872307538 [J.mol⁻¹]
Unit of velocity:                         100 [m.s⁻¹]
Unit of force:                            1.6605402000000002e-13 [N]
Unit of diffusion:                        1.0000000000000002e-08 [m².s⁻¹]
Unit of acceleration:                     1.0000000000000002e-08 [m².s⁻¹]
Unit of torque:                           1.6605402000000002e-23 [N.m]
Unit of pressure:                         16605402 [Pa]
Unit of volume:                           1e-30 [m³]
Unit of density:                          1660.5402 [kg.m⁻³]
Unit of dynamic viscosity:                1.6605401999999997e-05 [N.s.m⁻²]
Unit of enthalpy:                         1.6605402000000002e-23 [J]
Unit of polarizability:                   1.5458657349975198e-35 [-]
Unit of Coulomb potential:                167101.08000665612 [K]
Unit of dielectric constant:              1.5458657349975193e-05 [s².C².kg⁻¹.m⁻³]
Unit of dipole moment:                    1.60217733e-29 [C.m]
Unit of Debye:                            4.803206799099162 [C.m]
Unit of electric potential:               0.00010364272224473431 [V]
Unit of electric field:                   1036427.222447343 [V.m⁻¹]
Unit of isothermal compressibility:       6.02213665167516e-08 [Pa⁻¹]
Unit of heat capacity:                    10.000008872307538 [J.mol⁻¹.K⁻¹]
Unit of volumetric expansion coefficient: 1 [K⁻¹]


Internal conversion factors:
===============================================================================

Energy (internal units) to Kelvin:      1.202724284692786 [-]
Kelvin to energy (internal units):      0.8314457542157567 [-]


System definitions
===============================================================================

Temperature:          250 [K]
Beta:                 0.0048108928702210625 [-]
Pressure:             4e+06 [Pa]
Helium void fraction: 1 [-]

Box:      30.00000   0.00000   0.00000
           0.00000  30.00000   0.00000
           0.00000   0.00000  30.00000
Lengths:  30.00000  30.00000  30.00000
Angles:   90.00000  90.00000  90.00000
Rectangular boundary conditions



Property measurement settings
===============================================================================




Pseudo-atoms
===============================================================================

  0 - C_co2    framework-atom: false
  1 - O_co2    framework-atom: false

  0 - C_co2    mass: 12.00000, charge:  0.70000
  1 - O_co2    mass: 15.99940, charge: -0.35000

  0 - C_co2    polarizability:  0.00000
  1 - O_co2    polarizability:  0.00000

  0 - J. J. Potoff et al., AIChE J. 2001, 47, 1676–1682.
  1 - J. J. Potoff et al., AIChE J. 2001, 47, 1676–1682.

Force field status
===============================================================================

Cutoff Framework-Molecule VDW:  11.00000 [Å]
Cutoff Molecule-Molecule VDW:   11.00000 [Å]
Cutoff Coulomb:                 11.00000 [Å]

Overlap-criteria VDW:           1.000000e+05 [K]

C_co2    - C_co2    Lennard-Jones p₀/kʙ:  27.00000 [K], p₁:  2.80000 [Å]
                                  shift:   0.00000 [K], tailcorrections: true
C_co2    - O_co2    Lennard-Jones p₀/kʙ:  46.18441 [K], p₁:  2.92500 [Å]
                                  shift:   0.00000 [K], tailcorrections: true
O_co2    - O_co2    Lennard-Jones p₀/kʙ:  79.00000 [K], p₁:  3.05000 [Å]
                                  shift:   0.00000 [K], tailcorrections: true

Ewald precision: 1e-06
Ewald alpha: 0.2903408740940883
Ewald k-vectors: 9 9 9


Component definitions
===============================================================================

Component 0 [CO2]

    Type: Adsorbate

    Critical temperature:  304.1282 [K]
    Critical pressure:     7377300 [Pa]
    Acentric factor:       0.22394 [-]

    Mol-fraction:                 1 [-]
    Swappable:                   false

    Mass:                         43.9988 [-]
    Bulk fluid density:           0 [-]
    Compressibility:              0 [-]
    Excess molecules:             0 [-]

    Number Of Atoms:    3
    CBMC starting bead: 0
      0: O_co2  position  0.00000 -0.00000  1.16000, charge -0.35000
      1: C_co2  position  0.00000 -0.00000  0.00000, charge  0.70000
      2: O_co2  position  0.00000 -0.00000 -1.16000, charge -0.35000
    Diagonalized inertia-vector:      43.05758528 43.05758528 0.00000000
    Translational degrees of freedom: 3
    Rotational degrees of freedom:    2
    Shape of the molecule is: 'Linear'
    Net-charge:        0.00000000 [e]

    Move probabilities:
    Translation:                   0.331126 [-]
    Random translation:            0.000000 [-]
    Rotation:                      0.331126 [-]
    Random rotation:               0.000000 [-]
    Volume change:                 0.006623 [-]
    Reinsertion (CBMC):            0.331126 [-]
    Identity change (CBMC):        0.000000 [-]
    Swap:                          0.000000 [-]
    Swap (CBMC):                   0.000000 [-]
    Swap (CFCMC):                  0.000000 [-]
    Swap (CB/CFCMC):               0.000000 [-]
    Gibbs volume:                  0.000000 [-]
    Gibbs swap (CBMC):             0.000000 [-]
    Gibbs swap (CFCMC):            0.000000 [-]
    Widom:                         0.000000 [-]
    Widom (CFCMC):                 0.000000 [-]
    Widom (CB/CFCMC):              0.000000 [-]
    Parallel tempering:            0.000000 [-]
    Hybrid MC:                     0.000000 [-]

    number of blocking-pockets: 0

    number of bonds: 0





Number of pseudo-atoms
===============================================================================

Component   0 (CO2)
-------------------------------------------------------------------------------
    index   0 (C_co2): 200 atoms
    index   1 (O_co2): 400 atoms

Total number of pseudo-atoms:
-------------------------------------------------------------------------------
    index   0 (C_co2): 200 atoms
    index   1 (O_co2): 400 atoms




Energy status Recomputed from scratch
===============================================================================

Total potential energy/kʙ       -9.294310e+04 [K]
    external field VDW/kʙ        0.000000e+00 [K]
    external field Real/kʙ       0.000000e+00 [K]
    framework-molecule VDW/kʙ    0.000000e+00 [K]
    framework-molecule Real/kʙ   0.000000e+00 [K]
    molecule-molecule VDW/kʙ    -7.299079e+04 [K]
    molecule-molecule Real/kʙ   -1.449143e+04 [K]
    Van der Waals (Tail)/kʙ     -3.571688e+03 [K]
    Ewald Fourier/kʙ             1.626391e+04 [K]
    Ewald self/kʙ               -4.023739e+06 [K]
    Ewald exclusion/kʙ           4.005586e+06 [K]
    intra VDW/kʙ                 0.000000e+00 [K]
    intra Coulombic/kʙ           0.000000e+00 [K]
    polarization/kʙ              0.000000e+00 [K]
    dU/dlambda VDW/kʙ            0.000000e+00 [K]
    dU/dlambda Real/kʙ           0.000000e+00 [K]
    dU/dlambda Ewald/kʙ          0.000000e+00 [K]





Initialization: Current cycle: 0 out of 1000
===============================================================================

Box:      30.00000   0.00000   0.00000
           0.00000  30.00000   0.00000
           0.00000   0.00000  30.00000
Lengths:  30.00000  30.00000  30.00000
Angles:   90.00000  90.00000  90.00000
Rectangular boundary conditions

net charge:   0.00000000

component   0 (CO2) lambda:  0 occupancy:  1 (1.000000)
    net charge:   0.00000000 [e]

Amount of molecules per component :
-------------------------------------------------------------------------------
Component 0 (CO2)
    molecules:         2.000000e+02 molecules
    number density:    7.407407e-03 molec/A^3
    density:           5.411979e+02 kg/m^3

Total potential energy/kʙ       -1.191659e+05 [K]
-------------------------------------------------------------------------------
    external field VDW/kʙ        0.000000e+00 [K]
    external field Real/kʙ       0.000000e+00 [K]
    framework-molecule VDW/kʙ    0.000000e+00 [K]
    framework-molecule Real/kʙ   0.000000e+00 [K]
    molecule-molecule VDW/kʙ    -9.384972e+04 [K]
    molecule-molecule Real/kʙ   -1.865433e+04 [K]
    Van der Waals (Tail)/kʙ     -3.571688e+03 [K]
    Ewald Fourier/kʙ             1.506290e+04 [K]
    Ewald self/kʙ               -4.023739e+06 [K]
    Ewald exclusion/kʙ           4.005586e+06 [K]
    intra VDW/kʙ                 0.000000e+00 [K]
    intra Coulombic/kʙ           0.000000e+00 [K]
    polarization/kʙ              0.000000e+00 [K]
    dU/dlambda VDW/kʙ            0.000000e+00 [K]
    dU/dlambda Real/kʙ           0.000000e+00 [K]
    dU/dlambda Ewald/kʙ          0.000000e+00 [K]


Initialization: Current cycle: 100 out of 1000
===============================================================================

Box:      27.30622   0.00000   0.00000
           0.00000  27.30622   0.00000
           0.00000   0.00000  27.30622
Lengths:  27.30622  27.30622  27.30622
Angles:   90.00000  90.00000  90.00000
Rectangular boundary conditions

net charge:   0.00000000

component   0 (CO2) lambda:  0 occupancy:  1 (1.000000)
    net charge:   0.00000000 [e]

Amount of molecules per component :
-------------------------------------------------------------------------------
Component 0 (CO2)
    molecules:         2.000000e+02 molecules
    number density:    9.823022e-03 molec/A^3
    density:           7.176868e+02 kg/m^3

Total potential energy/kʙ       -2.139113e+05 [K]
-------------------------------------------------------------------------------
    external field VDW/kʙ        0.000000e+00 [K]
    external field Real/kʙ       0.000000e+00 [K]
    framework-molecule VDW/kʙ    0.000000e+00 [K]
    framework-molecule Real/kʙ   0.000000e+00 [K]
    molecule-molecule VDW/kʙ    -1.558481e+05 [K]
    molecule-molecule Real/kʙ   -4.675768e+04 [K]
    Van der Waals (Tail)/kʙ     -4.736444e+03 [K]
    Ewald Fourier/kʙ             1.158400e+04 [K]
    Ewald self/kʙ               -4.023739e+06 [K]
    Ewald exclusion/kʙ           4.005586e+06 [K]
    intra VDW/kʙ                 0.000000e+00 [K]
    intra Coulombic/kʙ           0.000000e+00 [K]
    polarization/kʙ              0.000000e+00 [K]
    dU/dlambda VDW/kʙ            0.000000e+00 [K]
    dU/dlambda Real/kʙ           0.000000e+00 [K]
    dU/dlambda Ewald/kʙ          0.000000e+00 [K]


Initialization: Current cycle: 200 out of 1000
===============================================================================

Box:      25.58125   0.00000   0.00000
           0.00000  25.58125   0.00000
           0.00000   0.00000  25.58125
Lengths:  25.58125  25.58125  25.58125
Angles:   90.00000  90.00000  90.00000
Rectangular boundary conditions

net charge:   0.00000000

component   0 (CO2) lambda:  0 occupancy:  1 (1.000000)
    net charge:   0.00000000 [e]

Amount of molecules per component :
-------------------------------------------------------------------------------
Component 0 (CO2)
    molecules:         2.000000e+02 molecules
    number density:    1.194716e-02 molec/A^3
    density:           8.728802e+02 kg/m^3

Total potential energy/kʙ       -2.393848e+05 [K]
-------------------------------------------------------------------------------
    external field VDW/kʙ        0.000000e+00 [K]
    external field Real/kʙ       0.000000e+00 [K]
    framework-molecule VDW/kʙ    0.000000e+00 [K]
    framework-molecule Real/kʙ   0.000000e+00 [K]
    molecule-molecule VDW/kʙ    -1.760287e+05 [K]
    molecule-molecule Real/kʙ   -4.972213e+04 [K]
    Van der Waals (Tail)/kʙ     -5.760658e+03 [K]
    Ewald Fourier/kʙ             1.027978e+04 [K]
    Ewald self/kʙ               -4.023739e+06 [K]
    Ewald exclusion/kʙ           4.005586e+06 [K]
    intra VDW/kʙ                 0.000000e+00 [K]
    intra Coulombic/kʙ           0.000000e+00 [K]
    polarization/kʙ              0.000000e+00 [K]
    dU/dlambda VDW/kʙ            0.000000e+00 [K]
    dU/dlambda Real/kʙ           0.000000e+00 [K]
    dU/dlambda Ewald/kʙ          0.000000e+00 [K]


Initialization: Current cycle: 300 out of 1000
===============================================================================

Box:      24.91083   0.00000   0.00000
           0.00000  24.91083   0.00000
           0.00000   0.00000  24.91083
Lengths:  24.91083  24.91083  24.91083
Angles:   90.00000  90.00000  90.00000
Rectangular boundary conditions

net charge:   0.00000000

component   0 (CO2) lambda:  0 occupancy:  1 (1.000000)
    net charge:   0.00000000 [e]

Amount of molecules per component :
-------------------------------------------------------------------------------
Component 0 (CO2)
    molecules:         2.000000e+02 molecules
    number density:    1.293795e-02 molec/A^3
    density:           9.452686e+02 kg/m^3

Total potential energy/kʙ       -2.619294e+05 [K]
-------------------------------------------------------------------------------
    external field VDW/kʙ        0.000000e+00 [K]
    external field Real/kʙ       0.000000e+00 [K]
    framework-molecule VDW/kʙ    0.000000e+00 [K]
    framework-molecule Real/kʙ   0.000000e+00 [K]
    molecule-molecule VDW/kʙ    -1.951075e+05 [K]
    molecule-molecule Real/kʙ   -5.134984e+04 [K]
    Van der Waals (Tail)/kʙ     -6.238392e+03 [K]
    Ewald Fourier/kʙ             8.919485e+03 [K]
    Ewald self/kʙ               -4.023739e+06 [K]
    Ewald exclusion/kʙ           4.005586e+06 [K]
    intra VDW/kʙ                 0.000000e+00 [K]
    intra Coulombic/kʙ           0.000000e+00 [K]
    polarization/kʙ              0.000000e+00 [K]
    dU/dlambda VDW/kʙ            0.000000e+00 [K]
    dU/dlambda Real/kʙ           0.000000e+00 [K]
    dU/dlambda Ewald/kʙ          0.000000e+00 [K]


Initialization: Current cycle: 400 out of 1000
===============================================================================

Box:      24.62852   0.00000   0.00000
           0.00000  24.62852   0.00000
           0.00000   0.00000  24.62852
Lengths:  24.62852  24.62852  24.62852
Angles:   90.00000  90.00000  90.00000
Rectangular boundary conditions

net charge:   0.00000000

component   0 (CO2) lambda:  0 occupancy:  1 (1.000000)
    net charge:   0.00000000 [e]

Amount of molecules per component :
-------------------------------------------------------------------------------
Component 0 (CO2)
    molecules:         2.000000e+02 molecules
    number density:    1.338798e-02 molec/A^3
    density:           9.781486e+02 kg/m^3

Total potential energy/kʙ       -2.810855e+05 [K]
-------------------------------------------------------------------------------
    external field VDW/kʙ        0.000000e+00 [K]
    external field Real/kʙ       0.000000e+00 [K]
    framework-molecule VDW/kʙ    0.000000e+00 [K]
    framework-molecule Real/kʙ   0.000000e+00 [K]
    molecule-molecule VDW/kʙ    -2.020614e+05 [K]
    molecule-molecule Real/kʙ   -6.267245e+04 [K]
    Van der Waals (Tail)/kʙ     -6.455387e+03 [K]
    Ewald Fourier/kʙ             8.256854e+03 [K]
    Ewald self/kʙ               -4.023739e+06 [K]
    Ewald exclusion/kʙ           4.005586e+06 [K]
    intra VDW/kʙ                 0.000000e+00 [K]
    intra Coulombic/kʙ           0.000000e+00 [K]
    polarization/kʙ              0.000000e+00 [K]
    dU/dlambda VDW/kʙ            0.000000e+00 [K]
    dU/dlambda Real/kʙ           0.000000e+00 [K]
    dU/dlambda Ewald/kʙ          0.000000e+00 [K]


Initialization: Current cycle: 500 out of 1000
===============================================================================

Box:      24.29466   0.00000   0.00000
           0.00000  24.29466   0.00000
           0.00000   0.00000  24.29466
Lengths:  24.29466  24.29466  24.29466
Angles:   90.00000  90.00000  90.00000
Rectangular boundary conditions

net charge:   0.00000000

component   0 (CO2) lambda:  0 occupancy:  1 (1.000000)
    net charge:   0.00000000 [e]

Amount of molecules per component :
-------------------------------------------------------------------------------
Component 0 (CO2)
    molecules:         2.000000e+02 molecules
    number density:    1.394753e-02 molec/A^3
    density:           1.019030e+03 kg/m^3

Total potential energy/kʙ       -2.875327e+05 [K]
-------------------------------------------------------------------------------
    external field VDW/kʙ        0.000000e+00 [K]
    external field Real/kʙ       0.000000e+00 [K]
    framework-molecule VDW/kʙ    0.000000e+00 [K]
    framework-molecule Real/kʙ   0.000000e+00 [K]
    molecule-molecule VDW/kʙ    -2.126618e+05 [K]
    molecule-molecule Real/kʙ   -5.811278e+04 [K]
    Van der Waals (Tail)/kʙ     -6.725190e+03 [K]
    Ewald Fourier/kʙ             8.120150e+03 [K]
    Ewald self/kʙ               -4.023739e+06 [K]
    Ewald exclusion/kʙ           4.005586e+06 [K]
    intra VDW/kʙ                 0.000000e+00 [K]
    intra Coulombic/kʙ           0.000000e+00 [K]
    polarization/kʙ              0.000000e+00 [K]
    dU/dlambda VDW/kʙ            0.000000e+00 [K]
    dU/dlambda Real/kʙ           0.000000e+00 [K]
    dU/dlambda Ewald/kʙ          0.000000e+00 [K]


Initialization: Current cycle: 600 out of 1000
===============================================================================

Box:      24.05484   0.00000   0.00000
           0.00000  24.05484   0.00000
           0.00000   0.00000  24.05484
Lengths:  24.05484  24.05484  24.05484
Angles:   90.00000  90.00000  90.00000
Rectangular boundary conditions

net charge:   0.00000000

component   0 (CO2) lambda:  0 occupancy:  1 (1.000000)
    net charge:   0.00000000 [e]

Amount of molecules per component :
-------------------------------------------------------------------------------
Component 0 (CO2)
    molecules:         2.000000e+02 molecules
    number density:    1.436888e-02 molec/A^3
    density:           1.049815e+03 kg/m^3

Total potential energy/kʙ       -3.008479e+05 [K]
-------------------------------------------------------------------------------
    external field VDW/kʙ        0.000000e+00 [K]
    external field Real/kʙ       0.000000e+00 [K]
    framework-molecule VDW/kʙ    0.000000e+00 [K]
    framework-molecule Real/kʙ   0.000000e+00 [K]
    molecule-molecule VDW/kʙ    -2.168097e+05 [K]
    molecule-molecule Real/kʙ   -6.669137e+04 [K]
    Van der Waals (Tail)/kʙ     -6.928354e+03 [K]
    Ewald Fourier/kʙ             7.734581e+03 [K]
    Ewald self/kʙ               -4.023739e+06 [K]
    Ewald exclusion/kʙ           4.005586e+06 [K]
    intra VDW/kʙ                 0.000000e+00 [K]
    intra Coulombic/kʙ           0.000000e+00 [K]
    polarization/kʙ              0.000000e+00 [K]
    dU/dlambda VDW/kʙ            0.000000e+00 [K]
    dU/dlambda Real/kʙ           0.000000e+00 [K]
    dU/dlambda Ewald/kʙ          0.000000e+00 [K]


Initialization: Current cycle: 700 out of 1000
===============================================================================

Box:      23.98458   0.00000   0.00000
           0.00000  23.98458   0.00000
           0.00000   0.00000  23.98458
Lengths:  23.98458  23.98458  23.98458
Angles:   90.00000  90.00000  90.00000
Rectangular boundary conditions

net charge:   0.00000000

component   0 (CO2) lambda:  0 occupancy:  1 (1.000000)
    net charge:   0.00000000 [e]

Amount of molecules per component :
-------------------------------------------------------------------------------
Component 0 (CO2)
    molecules:         2.000000e+02 molecules
    number density:    1.449551e-02 molec/A^3
    density:           1.059067e+03 kg/m^3

Total potential energy/kʙ       -2.989817e+05 [K]
-------------------------------------------------------------------------------
    external field VDW/kʙ        0.000000e+00 [K]
    external field Real/kʙ       0.000000e+00 [K]
    framework-molecule VDW/kʙ    0.000000e+00 [K]
    framework-molecule Real/kʙ   0.000000e+00 [K]
    molecule-molecule VDW/kʙ    -2.150563e+05 [K]
    molecule-molecule Real/kʙ   -6.725059e+04 [K]
    Van der Waals (Tail)/kʙ     -6.989417e+03 [K]
    Ewald Fourier/kʙ             8.467716e+03 [K]
    Ewald self/kʙ               -4.023739e+06 [K]
    Ewald exclusion/kʙ           4.005586e+06 [K]
    intra VDW/kʙ                 0.000000e+00 [K]
    intra Coulombic/kʙ           0.000000e+00 [K]
    polarization/kʙ              0.000000e+00 [K]
    dU/dlambda VDW/kʙ            0.000000e+00 [K]
    dU/dlambda Real/kʙ           0.000000e+00 [K]
    dU/dlambda Ewald/kʙ          0.000000e+00 [K]


Initialization: Current cycle: 800 out of 1000
===============================================================================

Box:      23.93486   0.00000   0.00000
           0.00000  23.93486   0.00000
           0.00000   0.00000  23.93486
Lengths:  23.93486  23.93486  23.93486
Angles:   90.00000  90.00000  90.00000
Rectangular boundary conditions

net charge:   0.00000000

component   0 (CO2) lambda:  0 occupancy:  1 (1.000000)
    net charge:   0.00000000 [e]

Amount of molecules per component :
-------------------------------------------------------------------------------
Component 0 (CO2)
    molecules:         2.000000e+02 molecules
    number density:    1.458604e-02 molec/A^3
    density:           1.065681e+03 kg/m^3

Total potential energy/kʙ       -3.085771e+05 [K]
-------------------------------------------------------------------------------
    external field VDW/kʙ        0.000000e+00 [K]
    external field Real/kʙ       0.000000e+00 [K]
    framework-molecule VDW/kʙ    0.000000e+00 [K]
    framework-molecule Real/kʙ   0.000000e+00 [K]
    molecule-molecule VDW/kʙ    -2.212489e+05 [K]
    molecule-molecule Real/kʙ   -7.005391e+04 [K]
    Van der Waals (Tail)/kʙ     -7.033068e+03 [K]
    Ewald Fourier/kʙ             7.911923e+03 [K]
    Ewald self/kʙ               -4.023739e+06 [K]
    Ewald exclusion/kʙ           4.005586e+06 [K]
    intra VDW/kʙ                 0.000000e+00 [K]
    intra Coulombic/kʙ           0.000000e+00 [K]
    polarization/kʙ              0.000000e+00 [K]
    dU/dlambda VDW/kʙ            0.000000e+00 [K]
    dU/dlambda Real/kʙ           0.000000e+00 [K]
    dU/dlambda Ewald/kʙ          0.000000e+00 [K]


Initialization: Current cycle: 900 out of 1000
===============================================================================

Box:      23.78733   0.00000   0.00000
           0.00000  23.78733   0.00000
           0.00000   0.00000  23.78733
Lengths:  23.78733  23.78733  23.78733
Angles:   90.00000  90.00000  90.00000
Rectangular boundary conditions

net charge:   0.00000000

component   0 (CO2) lambda:  0 occupancy:  1 (1.000000)
    net charge:   0.00000000 [e]

Amount of molecules per component :
-------------------------------------------------------------------------------
Component 0 (CO2)
    molecules:         2.000000e+02 molecules
    number density:    1.485911e-02 molec/A^3
    density:           1.085632e+03 kg/m^3

Total potential energy/kʙ       -3.196600e+05 [K]
-------------------------------------------------------------------------------
    external field VDW/kʙ        0.000000e+00 [K]
    external field Real/kʙ       0.000000e+00 [K]
    framework-molecule VDW/kʙ    0.000000e+00 [K]
    framework-molecule Real/kʙ   0.000000e+00 [K]
    molecule-molecule VDW/kʙ    -2.286497e+05 [K]
    molecule-molecule Real/kʙ   -7.272545e+04 [K]
    Van der Waals (Tail)/kʙ     -7.164733e+03 [K]
    Ewald Fourier/kʙ             7.033005e+03 [K]
    Ewald self/kʙ               -4.023739e+06 [K]
    Ewald exclusion/kʙ           4.005586e+06 [K]
    intra VDW/kʙ                 0.000000e+00 [K]
    intra Coulombic/kʙ           0.000000e+00 [K]
    polarization/kʙ              0.000000e+00 [K]
    dU/dlambda VDW/kʙ            0.000000e+00 [K]
    dU/dlambda Real/kʙ           0.000000e+00 [K]
    dU/dlambda Ewald/kʙ          0.000000e+00 [K]


Current cycle: 0 out of 5000
===============================================================================

Box:      23.90180   0.00000   0.00000  Average:  23.90180   0.00000   0.00000
           0.00000  23.90180   0.00000             0.00000  23.90180   0.00000
           0.00000   0.00000  23.90180             0.00000   0.00000  23.90180
Lengths:  23.90180  23.90180  23.90180  Average:  23.90180  23.90180  23.90180
Angles:   90.00000  90.00000  90.00000  Average:  90.00000  90.00000  90.00000
Rectangular boundary conditions

net charge:   0.00000000

component 0 (CO2) lambda:  0 occupancy:  1 (1.000000)
    net charge:   0.00000000 [e]

Amount of molecules per component :
-------------------------------------------------------------------------------
Component 0 (CO2)
    molecules:      2.000000e+02 molecules  (2.000000e+02 +/- 0.000000e+00)
    number density: 1.464664e-02 molec./A^3 (1.464664e-02 +/- 0.000000e+00)
    density:        1.070108e+03 kg/m^3     (1.070108e+03 +/- 0.000000e+00)

Average pressure tensor: 
-------------------------------------------------------------------------------
 5.0555e+02  0.0000e+00  0.0000e+00 +/- 0.0000e+00 0.0000e+00 0.0000e+00 [bar]
 0.0000e+00  5.0555e+02  0.0000e+00 +/- 0.0000e+00 0.0000e+00 0.0000e+00 [bar]
 0.0000e+00  0.0000e+00  5.0555e+02 +/- 0.0000e+00 0.0000e+00 0.0000e+00 [bar]
Ideal-gas pressure:   5.055471e+02 +/ 0.000000e+00 [bar]
Excess pressure:      0.000000e+00 +/ 0.000000e+00 [bar]
Pressure:             5.055471e+02 +/ 0.000000e+00 [bar]

Total potential energy/kʙ  -3.067333e+05 (-3.067333e+05 +/- 0.000000e+00) [K]
-------------------------------------------------------------------------------
ExternalField-molecule
    Van der Waals/kʙ        0.000000e+00 ( 0.000000e+00 +/- 0.000000e+00) [K]
Framework-molecule
    Van der Waals/kʙ        0.000000e+00 ( 0.000000e+00 +/- 0.000000e+00) [K]
    Van der Waals (Tail)/kʙ 0.000000e+00 ( 0.000000e+00 +/- 0.000000e+00) [K]
    Coulombic Real/kʙ       0.000000e+00 ( 0.000000e+00 +/- 0.000000e+00) [K]
    Coulombic Fourier/kʙ    0.000000e+00 ( 0.000000e+00 +/- 0.000000e+00) [K]
Molecule-molecule
    Van der Waals/kʙ       -2.191268e+05 (-2.191268e+05 +/- 0.000000e+00) [K]
    Van der Waals (Tail)/kʙ-7.062284e+03 (-7.062284e+03 +/- 0.000000e+00) [K]
    Coulombic Real/kʙ      -7.023161e+04 (-7.023161e+04 +/- 0.000000e+00) [K]
    Coulombic Fourier/kʙ   -1.031269e+04 (-1.031269e+04 +/- 0.000000e+00) [K]
    Molecule Intra/kʙ       0.000000e+00 ( 0.000000e+00 +/- 0.000000e+00) [K]

Current cycle: 100 out of 5000
===============================================================================

Box:      23.83584   0.00000   0.00000  Average:  23.89816   0.00000   0.00000
           0.00000  23.83584   0.00000             0.00000  23.89816   0.00000
           0.00000   0.00000  23.83584             0.00000   0.00000  23.89816
Lengths:  23.83584  23.83584  23.83584  Average:  23.89816  23.89816  23.89816
Angles:   90.00000  90.00000  90.00000  Average:  90.00000  90.00000  90.00000
Rectangular boundary conditions

net charge:   0.00000000

component 0 (CO2) lambda:  0 occupancy:  1 (1.000000)
    net charge:   0.00000000 [e]

Amount of molecules per component :
-------------------------------------------------------------------------------
Component 0 (CO2)
    molecules:      2.000000e+02 molecules  (2.000000e+02 +/- 0.000000e+00)
    number density: 1.476857e-02 molec./A^3 (1.465608e-02 +/- 0.000000e+00)
    density:        1.079017e+03 kg/m^3     (1.070798e+03 +/- 0.000000e+00)

Average pressure tensor: 
-------------------------------------------------------------------------------
 6.4497e+01  1.6726e+02 -7.2675e+01 +/- 0.0000e+00 0.0000e+00 0.0000e+00 [bar]
 1.6726e+02 -1.0666e+02 -1.4762e+02 +/- 0.0000e+00 0.0000e+00 0.0000e+00 [bar]
-7.2675e+01 -1.4762e+02 -8.0824e+01 +/- 0.0000e+00 0.0000e+00 0.0000e+00 [bar]
Ideal-gas pressure:   5.058731e+02 +/ 0.000000e+00 [bar]
Excess pressure:     -5.468691e+02 +/ 0.000000e+00 [bar]
Pressure:            -4.099601e+01 +/ 0.000000e+00 [bar]

Total potential energy/kʙ  -3.151405e+05 (-3.077339e+05 +/- 0.000000e+00) [K]
-------------------------------------------------------------------------------
ExternalField-molecule
    Van der Waals/kʙ        0.000000e+00 ( 0.000000e+00 +/- 0.000000e+00) [K]
Framework-molecule
    Van der Waals/kʙ        0.000000e+00 ( 0.000000e+00 +/- 0.000000e+00) [K]
    Van der Waals (Tail)/kʙ 0.000000e+00 ( 0.000000e+00 +/- 0.000000e+00) [K]
    Coulombic Real/kʙ       0.000000e+00 ( 0.000000e+00 +/- 0.000000e+00) [K]
    Coulombic Fourier/kʙ    0.000000e+00 ( 0.000000e+00 +/- 0.000000e+00) [K]
Molecule-molecule
    Van der Waals/kʙ       -2.271062e+05 (-2.206405e+05 +/- 0.000000e+00) [K]
    Van der Waals (Tail)/kʙ-7.121077e+03 (-7.052403e+03 +/- 0.000000e+00) [K]
    Coulombic Real/kʙ      -7.007199e+04 (-6.945113e+04 +/- 0.000000e+00) [K]
    Coulombic Fourier/kʙ   -1.084120e+04 (-1.058981e+04 +/- 0.000000e+00) [K]
    Molecule Intra/kʙ       0.000000e+00 ( 0.000000e+00 +/- 0.000000e+00) [K]

Current cycle: 200 out of 5000
===============================================================================

Box:      23.64757   0.00000   0.00000  Average:  23.80633   0.00000   0.00000
           0.00000  23.64757   0.00000             0.00000  23.80633   0.00000
           0.00000   0.00000  23.64757             0.00000   0.00000  23.80633
Lengths:  23.64757  23.64757  23.64757  Average:  23.80633  23.80633  23.80633
Angles:   90.00000  90.00000  90.00000  Average:  90.00000  90.00000  90.00000
Rectangular boundary conditions

net charge:   0.00000000

component 0 (CO2) lambda:  0 occupancy:  1 (1.000000)
    net charge:   0.00000000 [e]

Amount of molecules per component :
-------------------------------------------------------------------------------
Component 0 (CO2)
    molecules:      2.000000e+02 molecules  (2.000000e+02 +/- 0.000000e+00)
    number density: 1.512413e-02 molec./A^3 (1.482702e-02 +/- 0.000000e+00)
    density:        1.104995e+03 kg/m^3     (1.083287e+03 +/- 0.000000e+00)

Average pressure tensor: 
-------------------------------------------------------------------------------
 6.7266e+01  7.1841e+01 -9.8279e+01 +/- 0.0000e+00 0.0000e+00 0.0000e+00 [bar]
 7.1841e+01 -7.5069e+01 -1.0068e+02 +/- 0.0000e+00 0.0000e+00 0.0000e+00 [bar]
-9.8279e+01 -1.0068e+02 -3.6223e+01 +/- 0.0000e+00 0.0000e+00 0.0000e+00 [bar]
Ideal-gas pressure:   5.117733e+02 +/ 0.000000e+00 [bar]
Excess pressure:     -5.264488e+02 +/ 0.000000e+00 [bar]
Pressure:            -1.467555e+01 +/ 0.000000e+00 [bar]

Total potential energy/kʙ  -3.218562e+05 (-3.130458e+05 +/- 0.000000e+00) [K]
-------------------------------------------------------------------------------
ExternalField-molecule
    Van der Waals/kʙ        0.000000e+00 ( 0.000000e+00 +/- 0.000000e+00) [K]
Framework-molecule
    Van der Waals/kʙ        0.000000e+00 ( 0.000000e+00 +/- 0.000000e+00) [K]
    Van der Waals (Tail)/kʙ 0.000000e+00 ( 0.000000e+00 +/- 0.000000e+00) [K]
    Coulombic Real/kʙ       0.000000e+00 ( 0.000000e+00 +/- 0.000000e+00) [K]
    Coulombic Fourier/kʙ    0.000000e+00 ( 0.000000e+00 +/- 0.000000e+00) [K]
Molecule-molecule
    Van der Waals/kʙ       -2.314610e+05 (-2.244196e+05 +/- 0.000000e+00) [K]
    Van der Waals (Tail)/kʙ-7.292521e+03 (-7.148762e+03 +/- 0.000000e+00) [K]
    Coulombic Real/kʙ      -7.288908e+04 (-7.085893e+04 +/- 0.000000e+00) [K]
    Coulombic Fourier/kʙ   -1.021354e+04 (-1.061854e+04 +/- 0.000000e+00) [K]
    Molecule Intra/kʙ       0.000000e+00 ( 0.000000e+00 +/- 0.000000e+00) [K]

Current cycle: 300 out of 5000
===============================================================================

Box:      23.72171   0.00000   0.00000  Average:  23.74700   0.00000   0.00000
           0.00000  23.72171   0.00000             0.00000  23.74700   0.00000
           0.00000   0.00000  23.72171             0.00000   0.00000  23.74700
Lengths:  23.72171  23.72171  23.72171  Average:  23.74700  23.74700  23.74700
Angles:   90.00000  90.00000  90.00000  Average:  90.00000  90.00000  90.00000
Rectangular boundary conditions

net charge:   0.00000000

component 0 (CO2) lambda:  0 occupancy:  1 (1.000000)
    net charge:   0.00000000 [e]

Amount of molecules per component :
-------------------------------------------------------------------------------
Component 0 (CO2)
    molecules:      2.000000e+02 molecules  (2.000000e+02 +/- 0.000000e+00)
    number density: 1.498277e-02 molec./A^3 (1.493907e-02 +/- 0.000000e+00)
    density:        1.094667e+03 kg/m^3     (1.091474e+03 +/- 0.000000e+00)

Average pressure tensor: 
-------------------------------------------------------------------------------
 5.6563e+01  4.8428e+01 -9.5744e+01 +/- 0.0000e+00 0.0000e+00 0.0000e+00 [bar]
 4.8428e+01  8.6322e+01 -1.2305e+02 +/- 0.0000e+00 0.0000e+00 0.0000e+00 [bar]
-9.5744e+01 -1.2305e+02 -5.6173e+01 +/- 0.0000e+00 0.0000e+00 0.0000e+00 [bar]
Ideal-gas pressure:   5.156408e+02 +/ 0.000000e+00 [bar]
Excess pressure:     -4.867369e+02 +/ 0.000000e+00 [bar]
Pressure:             2.890392e+01 +/ 0.000000e+00 [bar]

Total potential energy/kʙ  -3.210359e+05 (-3.155725e+05 +/- 0.000000e+00) [K]
-------------------------------------------------------------------------------
ExternalField-molecule
    Van der Waals/kʙ        0.000000e+00 ( 0.000000e+00 +/- 0.000000e+00) [K]
Framework-molecule
    Van der Waals/kʙ        0.000000e+00 ( 0.000000e+00 +/- 0.000000e+00) [K]
    Van der Waals (Tail)/kʙ 0.000000e+00 ( 0.000000e+00 +/- 0.000000e+00) [K]
    Coulombic Real/kʙ       0.000000e+00 ( 0.000000e+00 +/- 0.000000e+00) [K]
    Coulombic Fourier/kʙ    0.000000e+00 ( 0.000000e+00 +/- 0.000000e+00) [K]
Molecule-molecule
    Van der Waals/kʙ       -2.294031e+05 (-2.269898e+05 +/- 0.000000e+00) [K]
    Van der Waals (Tail)/kʙ-7.224359e+03 (-7.205204e+03 +/- 0.000000e+00) [K]
    Coulombic Real/kʙ      -7.393377e+04 (-7.078291e+04 +/- 0.000000e+00) [K]
    Coulombic Fourier/kʙ   -1.047467e+04 (-1.059461e+04 +/- 0.000000e+00) [K]
    Molecule Intra/kʙ       0.000000e+00 ( 0.000000e+00 +/- 0.000000e+00) [K]

Current cycle: 400 out of 5000
===============================================================================

Box:      24.15685   0.00000   0.00000  Average:  23.80526   0.00000   0.00000
           0.00000  24.15685   0.00000             0.00000  23.80526   0.00000
           0.00000   0.00000  24.15685             0.00000   0.00000  23.80526
Lengths:  24.15685  24.15685  24.15685  Average:  23.80526  23.80526  23.80526
Angles:   90.00000  90.00000  90.00000  Average:  90.00000  90.00000  90.00000
Rectangular boundary conditions

net charge:   0.00000000

component 0 (CO2) lambda:  0 occupancy:  1 (1.000000)
    net charge:   0.00000000 [e]

Amount of molecules per component :
-------------------------------------------------------------------------------
Component 0 (CO2)
    molecules:      2.000000e+02 molecules  (2.000000e+02 +/- 0.000000e+00)
    number density: 1.418761e-02 molec./A^3 (1.483102e-02 +/- 0.000000e+00)
    density:        1.036571e+03 kg/m^3     (1.083580e+03 +/- 0.000000e+00)

Average pressure tensor: 
-------------------------------------------------------------------------------
 1.5398e+01 -6.6023e+00 -6.5639e+01 +/- 0.0000e+00 0.0000e+00 0.0000e+00 [bar]
-6.6023e+00  1.0478e+02 -9.0135e+01 +/- 0.0000e+00 0.0000e+00 0.0000e+00 [bar]
-6.5639e+01 -9.0135e+01 -3.7645e+01 +/- 0.0000e+00 0.0000e+00 0.0000e+00 [bar]
Ideal-gas pressure:   5.119113e+02 +/ 0.000000e+00 [bar]
Excess pressure:     -4.843997e+02 +/ 0.000000e+00 [bar]
Pressure:             2.751163e+01 +/ 0.000000e+00 [bar]

Total potential energy/kʙ  -2.998254e+05 (-3.125594e+05 +/- 0.000000e+00) [K]
-------------------------------------------------------------------------------
ExternalField-molecule
    Van der Waals/kʙ        0.000000e+00 ( 0.000000e+00 +/- 0.000000e+00) [K]
Framework-molecule
    Van der Waals/kʙ        0.000000e+00 ( 0.000000e+00 +/- 0.000000e+00) [K]
    Van der Waals (Tail)/kʙ 0.000000e+00 ( 0.000000e+00 +/- 0.000000e+00) [K]
    Coulombic Real/kʙ       0.000000e+00 ( 0.000000e+00 +/- 0.000000e+00) [K]
    Coulombic Fourier/kʙ    0.000000e+00 ( 0.000000e+00 +/- 0.000000e+00) [K]
Molecule-molecule
    Van der Waals/kʙ       -2.175385e+05 (-2.253006e+05 +/- 0.000000e+00) [K]
    Van der Waals (Tail)/kʙ-6.840951e+03 (-7.143492e+03 +/- 0.000000e+00) [K]
    Coulombic Real/kʙ      -6.463001e+04 (-6.952993e+04 +/- 0.000000e+00) [K]
    Coulombic Fourier/kʙ   -1.081594e+04 (-1.058538e+04 +/- 0.000000e+00) [K]
    Molecule Intra/kʙ       0.000000e+00 ( 0.000000e+00 +/- 0.000000e+00) [K]

Current cycle: 500 out of 5000
===============================================================================

Box:      24.62376   0.00000   0.00000  Average:  23.91663   0.00000   0.00000
           0.00000  24.62376   0.00000             0.00000  23.91663   0.00000
           0.00000   0.00000  24.62376             0.00000   0.00000  23.91663
Lengths:  24.62376  24.62376  24.62376  Average:  23.91663  23.91663  23.91663
Angles:   90.00000  90.00000  90.00000  Average:  90.00000  90.00000  90.00000
Rectangular boundary conditions

net charge:   0.00000000

component 0 (CO2) lambda:  0 occupancy:  1 (1.000000)
    net charge:   0.00000000 [e]

Amount of molecules per component :
-------------------------------------------------------------------------------
Component 0 (CO2)
    molecules:      2.000000e+02 molecules  (2.000000e+02 +/- 0.000000e+00)
    number density: 1.339574e-02 molec./A^3 (1.463202e-02 +/- 0.000000e+00)
    density:        9.787155e+02 kg/m^3     (1.069041e+03 +/- 0.000000e+00)

Average pressure tensor: 
-------------------------------------------------------------------------------
-8.9959e+00 -6.4260e+00 -4.6649e+01 +/- 0.0000e+00 0.0000e+00 0.0000e+00 [bar]
-6.4260e+00  1.2482e+02 -7.3234e+01 +/- 0.0000e+00 0.0000e+00 0.0000e+00 [bar]
-4.6649e+01 -7.3234e+01 -4.2109e+01 +/- 0.0000e+00 0.0000e+00 0.0000e+00 [bar]
Ideal-gas pressure:   5.050427e+02 +/ 0.000000e+00 [bar]
Excess pressure:     -4.804709e+02 +/ 0.000000e+00 [bar]
Pressure:             2.457177e+01 +/ 0.000000e+00 [bar]

Total potential energy/kʙ  -2.750490e+05 (-3.076410e+05 +/- 0.000000e+00) [K]
-------------------------------------------------------------------------------
ExternalField-molecule
    Van der Waals/kʙ        0.000000e+00 ( 0.000000e+00 +/- 0.000000e+00) [K]
Framework-molecule
    Van der Waals/kʙ        0.000000e+00 ( 0.000000e+00 +/- 0.000000e+00) [K]
    Van der Waals (Tail)/kʙ 0.000000e+00 ( 0.000000e+00 +/- 0.000000e+00) [K]
    Coulombic Real/kʙ       0.000000e+00 ( 0.000000e+00 +/- 0.000000e+00) [K]
    Coulombic Fourier/kʙ    0.000000e+00 ( 0.000000e+00 +/- 0.000000e+00) [K]
Molecule-molecule
    Van der Waals/kʙ       -2.028317e+05 (-2.223151e+05 +/- 0.000000e+00) [K]
    Van der Waals (Tail)/kʙ-6.459129e+03 (-7.051292e+03 +/- 0.000000e+00) [K]
    Coulombic Real/kʙ      -5.668343e+04 (-6.782920e+04 +/- 0.000000e+00) [K]
    Coulombic Fourier/kʙ   -9.074792e+03 (-1.044539e+04 +/- 0.000000e+00) [K]
    Molecule Intra/kʙ       0.000000e+00 ( 0.000000e+00 +/- 0.000000e+00) [K]

Current cycle: 600 out of 5000
===============================================================================

Box:      24.28711   0.00000   0.00000  Average:  23.97338   0.00000   0.00000
           0.00000  24.28711   0.00000             0.00000  23.97338   0.00000
           0.00000   0.00000  24.28711             0.00000   0.00000  23.97338
Lengths:  24.28711  24.28711  24.28711  Average:  23.97338  23.97338  23.97338
Angles:   90.00000  90.00000  90.00000  Average:  90.00000  90.00000  90.00000
Rectangular boundary conditions

net charge:   0.00000000

component 0 (CO2) lambda:  0 occupancy:  1 (1.000000)
    net charge:   0.00000000 [e]

Amount of molecules per component :
-------------------------------------------------------------------------------
Component 0 (CO2)
    molecules:      2.000000e+02 molecules  (2.000000e+02 +/- 0.000000e+00)
    number density: 1.396055e-02 molec./A^3 (1.452903e-02 +/- 0.000000e+00)
    density:        1.019982e+03 kg/m^3     (1.061516e+03 +/- 0.000000e+00)

Average pressure tensor: 
-------------------------------------------------------------------------------
 3.0012e+01 -1.5562e+01 -4.6553e+01 +/- 0.0000e+00 0.0000e+00 0.0000e+00 [bar]
-1.5562e+01  9.3434e+01 -4.9549e+01 +/- 0.0000e+00 0.0000e+00 0.0000e+00 [bar]
-4.6553e+01 -4.9549e+01 -2.3505e+01 +/- 0.0000e+00 0.0000e+00 0.0000e+00 [bar]
Ideal-gas pressure:   5.014876e+02 +/ 0.000000e+00 [bar]
Excess pressure:     -4.681742e+02 +/ 0.000000e+00 [bar]
Pressure:             3.331347e+01 +/ 0.000000e+00 [bar]

Total potential energy/kʙ  -2.873068e+05 (-3.048517e+05 +/- 0.000000e+00) [K]
-------------------------------------------------------------------------------
ExternalField-molecule
    Van der Waals/kʙ        0.000000e+00 ( 0.000000e+00 +/- 0.000000e+00) [K]
Framework-molecule
    Van der Waals/kʙ        0.000000e+00 ( 0.000000e+00 +/- 0.000000e+00) [K]
    Van der Waals (Tail)/kʙ 0.000000e+00 ( 0.000000e+00 +/- 0.000000e+00) [K]
    Coulombic Real/kʙ       0.000000e+00 ( 0.000000e+00 +/- 0.000000e+00) [K]
    Coulombic Fourier/kʙ    0.000000e+00 ( 0.000000e+00 +/- 0.000000e+00) [K]
Molecule-molecule
    Van der Waals/kʙ       -2.057880e+05 (-2.203996e+05 +/- 0.000000e+00) [K]
    Van der Waals (Tail)/kʙ-6.731468e+03 (-7.006190e+03 +/- 0.000000e+00) [K]
    Coulombic Real/kʙ      -6.525531e+04 (-6.714066e+04 +/- 0.000000e+00) [K]
    Coulombic Fourier/kʙ   -9.532082e+03 (-1.030529e+04 +/- 0.000000e+00) [K]
    Molecule Intra/kʙ       0.000000e+00 ( 0.000000e+00 +/- 0.000000e+00) [K]

Current cycle: 700 out of 5000
===============================================================================

Box:      24.13373   0.00000   0.00000  Average:  24.01041   0.00000   0.00000
           0.00000  24.13373   0.00000             0.00000  24.01041   0.00000
           0.00000   0.00000  24.13373             0.00000   0.00000  24.01041
Lengths:  24.13373  24.13373  24.13373  Average:  24.01041  24.01041  24.01041
Angles:   90.00000  90.00000  90.00000  Average:  90.00000  90.00000  90.00000
Rectangular boundary conditions

net charge:   0.00000000

component 0 (CO2) lambda:  0 occupancy:  1 (1.000000)
    net charge:   0.00000000 [e]

Amount of molecules per component :
-------------------------------------------------------------------------------
Component 0 (CO2)
    molecules:      2.000000e+02 molecules  (2.000000e+02 +/- 0.000000e+00)
    number density: 1.422841e-02 molec./A^3 (1.446156e-02 +/- 0.000000e+00)
    density:        1.039552e+03 kg/m^3     (1.056586e+03 +/- 0.000000e+00)

Average pressure tensor: 
-------------------------------------------------------------------------------
 6.2778e+01 -2.8115e+01 -5.3954e+01 +/- 0.0000e+00 0.0000e+00 0.0000e+00 [bar]
-2.8115e+01  8.0716e+01 -4.9098e+00 +/- 0.0000e+00 0.0000e+00 0.0000e+00 [bar]
-5.3954e+01 -4.9098e+00 -1.5516e+01 +/- 0.0000e+00 0.0000e+00 0.0000e+00 [bar]
Ideal-gas pressure:   4.991588e+02 +/ 0.000000e+00 [bar]
Excess pressure:     -4.564992e+02 +/ 0.000000e+00 [bar]
Pressure:             4.265954e+01 +/ 0.000000e+00 [bar]

Total potential energy/kʙ  -2.995513e+05 (-3.032597e+05 +/- 0.000000e+00) [K]
-------------------------------------------------------------------------------
ExternalField-molecule
    Van der Waals/kʙ        0.000000e+00 ( 0.000000e+00 +/- 0.000000e+00) [K]
Framework-molecule
    Van der Waals/kʙ        0.000000e+00 ( 0.000000e+00 +/- 0.000000e+00) [K]
    Van der Waals (Tail)/kʙ 0.000000e+00 ( 0.000000e+00 +/- 0.000000e+00) [K]
    Coulombic Real/kʙ       0.000000e+00 ( 0.000000e+00 +/- 0.000000e+00) [K]
    Coulombic Fourier/kʙ    0.000000e+00 ( 0.000000e+00 +/- 0.000000e+00) [K]
Molecule-molecule
    Van der Waals/kʙ       -2.158348e+05 (-2.193667e+05 +/- 0.000000e+00) [K]
    Van der Waals (Tail)/kʙ-6.860626e+03 (-6.976595e+03 +/- 0.000000e+00) [K]
    Coulombic Real/kʙ      -6.591076e+04 (-6.668627e+04 +/- 0.000000e+00) [K]
    Coulombic Fourier/kʙ   -1.094509e+04 (-1.023015e+04 +/- 0.000000e+00) [K]
    Molecule Intra/kʙ       0.000000e+00 ( 0.000000e+00 +/- 0.000000e+00) [K]

Current cycle: 800 out of 5000
===============================================================================

Box:      24.28743   0.00000   0.00000  Average:  24.02955   0.00000   0.00000
           0.00000  24.28743   0.00000             0.00000  24.02955   0.00000
           0.00000   0.00000  24.28743             0.00000   0.00000  24.02955
Lengths:  24.28743  24.28743  24.28743  Average:  24.02955  24.02955  24.02955
Angles:   90.00000  90.00000  90.00000  Average:  90.00000  90.00000  90.00000
Rectangular boundary conditions

net charge:   0.00000000

component 0 (CO2) lambda:  0 occupancy:  1 (1.000000)
    net charge:   0.00000000 [e]

Amount of molecules per component :
-------------------------------------------------------------------------------
Component 0 (CO2)
    molecules:      2.000000e+02 molecules  (2.000000e+02 +/- 0.000000e+00)
    number density: 1.395999e-02 molec./A^3 (1.442600e-02 +/- 0.000000e+00)
    density:        1.019941e+03 kg/m^3     (1.053988e+03 +/- 0.000000e+00)

Average pressure tensor: 
-------------------------------------------------------------------------------
 5.2196e+01 -1.8865e+01 -4.8353e+01 +/- 0.0000e+00 0.0000e+00 0.0000e+00 [bar]
-1.8865e+01  8.2839e+01  5.5777e+00 +/- 0.0000e+00 0.0000e+00 0.0000e+00 [bar]
-4.8353e+01  5.5777e+00 -5.3692e-01 +/- 0.0000e+00 0.0000e+00 0.0000e+00 [bar]
Ideal-gas pressure:   4.979314e+02 +/ 0.000000e+00 [bar]
Excess pressure:     -4.530984e+02 +/ 0.000000e+00 [bar]
Pressure:             4.483297e+01 +/ 0.000000e+00 [bar]

Total potential energy/kʙ  -2.908916e+05 (-3.023099e+05 +/- 0.000000e+00) [K]
-------------------------------------------------------------------------------
ExternalField-molecule
    Van der Waals/kʙ        0.000000e+00 ( 0.000000e+00 +/- 0.000000e+00) [K]
Framework-molecule
    Van der Waals/kʙ        0.000000e+00 ( 0.000000e+00 +/- 0.000000e+00) [K]
    Van der Waals (Tail)/kʙ 0.000000e+00 ( 0.000000e+00 +/- 0.000000e+00) [K]
    Coulombic Real/kʙ       0.000000e+00 ( 0.000000e+00 +/- 0.000000e+00) [K]
    Coulombic Fourier/kʙ    0.000000e+00 ( 0.000000e+00 +/- 0.000000e+00) [K]
Molecule-molecule
    Van der Waals/kʙ       -2.079688e+05 (-2.186758e+05 +/- 0.000000e+00) [K]
    Van der Waals (Tail)/kʙ-6.731201e+03 (-6.958345e+03 +/- 0.000000e+00) [K]
    Coulombic Real/kʙ      -6.708293e+04 (-6.648886e+04 +/- 0.000000e+00) [K]
    Coulombic Fourier/kʙ   -9.108658e+03 (-1.018690e+04 +/- 0.000000e+00) [K]
    Molecule Intra/kʙ       0.000000e+00 ( 0.000000e+00 +/- 0.000000e+00) [K]

Current cycle: 900 out of 5000
===============================================================================

Box:      24.26889   0.00000   0.00000  Average:  24.06250   0.00000   0.00000
           0.00000  24.26889   0.00000             0.00000  24.06250   0.00000
           0.00000   0.00000  24.26889             0.00000   0.00000  24.06250
Lengths:  24.26889  24.26889  24.26889  Average:  24.06250  24.06250  24.06250
Angles:   90.00000  90.00000  90.00000  Average:  90.00000  90.00000  90.00000
Rectangular boundary conditions

net charge:   0.00000000

component 0 (CO2) lambda:  0 occupancy:  1 (1.000000)
    net charge:   0.00000000 [e]

Amount of molecules per component :
-------------------------------------------------------------------------------
Component 0 (CO2)
    molecules:      2.000000e+02 molecules  (2.000000e+02 +/- 0.000000e+00)
    number density: 1.399201e-02 molec./A^3 (1.436697e-02 +/- 0.000000e+00)
    density:        1.022280e+03 kg/m^3     (1.049675e+03 +/- 0.000000e+00)

Average pressure tensor: 
-------------------------------------------------------------------------------
 3.4185e+01 -1.8901e+00 -5.4410e+01 +/- 0.0000e+00 0.0000e+00 0.0000e+00 [bar]
-1.8901e+00  7.1026e+01  1.2197e+01 +/- 0.0000e+00 0.0000e+00 0.0000e+00 [bar]
-5.4410e+01  1.2197e+01  1.5512e+00 +/- 0.0000e+00 0.0000e+00 0.0000e+00 [bar]
Ideal-gas pressure:   4.958939e+02 +/ 0.000000e+00 [bar]
Excess pressure:     -4.603068e+02 +/ 0.000000e+00 [bar]
Pressure:             3.558717e+01 +/ 0.000000e+00 [bar]

Total potential energy/kʙ  -2.883012e+05 (-3.014504e+05 +/- 0.000000e+00) [K]
-------------------------------------------------------------------------------
ExternalField-molecule
    Van der Waals/kʙ        0.000000e+00 ( 0.000000e+00 +/- 0.000000e+00) [K]
Framework-molecule
    Van der Waals/kʙ        0.000000e+00 ( 0.000000e+00 +/- 0.000000e+00) [K]
    Van der Waals (Tail)/kʙ 0.000000e+00 ( 0.000000e+00 +/- 0.000000e+00) [K]
    Coulombic Real/kʙ       0.000000e+00 ( 0.000000e+00 +/- 0.000000e+00) [K]
    Coulombic Fourier/kʙ    0.000000e+00 ( 0.000000e+00 +/- 0.000000e+00) [K]
Molecule-molecule
    Van der Waals/kʙ       -2.090714e+05 (-2.180082e+05 +/- 0.000000e+00) [K]
    Van der Waals (Tail)/kʙ-6.746639e+03 (-6.930029e+03 +/- 0.000000e+00) [K]
    Coulombic Real/kʙ      -6.308389e+04 (-6.636857e+04 +/- 0.000000e+00) [K]
    Coulombic Fourier/kʙ   -9.399223e+03 (-1.014366e+04 +/- 0.000000e+00) [K]
    Molecule Intra/kʙ       0.000000e+00 ( 0.000000e+00 +/- 0.000000e+00) [K]

Current cycle: 1000 out of 5000
===============================================================================

Box:      24.34036   0.00000   0.00000  Average:  24.08966   0.00000   0.00000
           0.00000  24.34036   0.00000             0.00000  24.08966   0.00000
           0.00000   0.00000  24.34036             0.00000   0.00000  24.08966
Lengths:  24.34036  24.34036  24.34036  Average:  24.08966  24.08966  24.08966
Angles:   90.00000  90.00000  90.00000  Average:  90.00000  90.00000  90.00000
Rectangular boundary conditions

net charge:   0.00000000

component 0 (CO2) lambda:  0 occupancy:  1 (1.000000)
    net charge:   0.00000000 [e]

Amount of molecules per component :
-------------------------------------------------------------------------------
Component 0 (CO2)
    molecules:      2.000000e+02 molecules  (2.000000e+02 +/- 0.000000e+00)
    number density: 1.386913e-02 molec./A^3 (1.431839e-02 +/- 0.000000e+00)
    density:        1.013302e+03 kg/m^3     (1.046126e+03 +/- 0.000000e+00)

Average pressure tensor: 
-------------------------------------------------------------------------------
 1.9833e+00 -6.2446e+00 -5.9458e+01 +/- 0.0000e+00 0.0000e+00 0.0000e+00 [bar]
-6.2446e+00  6.2189e+01  9.1137e+00 +/- 0.0000e+00 0.0000e+00 0.0000e+00 [bar]
-5.9458e+01  9.1137e+00  1.3168e+01 +/- 0.0000e+00 0.0000e+00 0.0000e+00 [bar]
Ideal-gas pressure:   4.942173e+02 +/ 0.000000e+00 [bar]
Excess pressure:     -4.684371e+02 +/ 0.000000e+00 [bar]
Pressure:             2.578026e+01 +/ 0.000000e+00 [bar]

Total potential energy/kʙ  -2.914085e+05 (-3.004615e+05 +/- 0.000000e+00) [K]
-------------------------------------------------------------------------------
ExternalField-molecule
    Van der Waals/kʙ        0.000000e+00 ( 0.000000e+00 +/- 0.000000e+00) [K]
Framework-molecule
    Van der Waals/kʙ        0.000000e+00 ( 0.000000e+00 +/- 0.000000e+00) [K]
    Van der Waals (Tail)/kʙ 0.000000e+00 ( 0.000000e+00 +/- 0.000000e+00) [K]
    Coulombic Real/kʙ       0.000000e+00 ( 0.000000e+00 +/- 0.000000e+00) [K]
    Coulombic Fourier/kʙ    0.000000e+00 ( 0.000000e+00 +/- 0.000000e+00) [K]
Molecule-molecule
    Van der Waals/kʙ       -2.104856e+05 (-2.172569e+05 +/- 0.000000e+00) [K]
    Van der Waals (Tail)/kʙ-6.687387e+03 (-6.905747e+03 +/- 0.000000e+00) [K]
    Coulombic Real/kʙ      -6.424070e+04 (-6.616190e+04 +/- 0.000000e+00) [K]
    Coulombic Fourier/kʙ   -9.994764e+03 (-1.013698e+04 +/- 0.000000e+00) [K]
    Molecule Intra/kʙ       0.000000e+00 ( 0.000000e+00 +/- 0.000000e+00) [K]

Current cycle: 1100 out of 5000
===============================================================================

Box:      24.64846   0.00000   0.00000  Average:  24.12676   0.00000   0.00000
           0.00000  24.64846   0.00000             0.00000  24.12676   0.00000
           0.00000   0.00000  24.64846             0.00000   0.00000  24.12676
Lengths:  24.64846  24.64846  24.64846  Average:  24.12676  24.12676  24.12676
Angles:   90.00000  90.00000  90.00000  Average:  90.00000  90.00000  90.00000
Rectangular boundary conditions

net charge:   0.00000000

component 0 (CO2) lambda:  0 occupancy:  1 (1.000000)
    net charge:   0.00000000 [e]

Amount of molecules per component :
-------------------------------------------------------------------------------
Component 0 (CO2)
    molecules:      2.000000e+02 molecules  (2.000000e+02 +/- 0.000000e+00)
    number density: 1.335551e-02 molec./A^3 (1.425367e-02 +/- 0.000000e+00)
    density:        9.757767e+02 kg/m^3     (1.041397e+03 +/- 0.000000e+00)

Average pressure tensor: 
-------------------------------------------------------------------------------
-9.4725e-01 -2.4262e+00 -5.9232e+01 +/- 0.0000e+00 0.0000e+00 0.0000e+00 [bar]
-2.4262e+00  6.1561e+01  1.7159e+01 +/- 0.0000e+00 0.0000e+00 0.0000e+00 [bar]
-5.9232e+01  1.7159e+01 -1.7250e+00 +/- 0.0000e+00 0.0000e+00 0.0000e+00 [bar]
Ideal-gas pressure:   4.919832e+02 +/ 0.000000e+00 [bar]
Excess pressure:     -4.723536e+02 +/ 0.000000e+00 [bar]
Pressure:             1.962959e+01 +/ 0.000000e+00 [bar]

Total potential energy/kʙ  -2.770420e+05 (-2.988379e+05 +/- 0.000000e+00) [K]
-------------------------------------------------------------------------------
ExternalField-molecule
    Van der Waals/kʙ        0.000000e+00 ( 0.000000e+00 +/- 0.000000e+00) [K]
Framework-molecule
    Van der Waals/kʙ        0.000000e+00 ( 0.000000e+00 +/- 0.000000e+00) [K]
    Van der Waals (Tail)/kʙ 0.000000e+00 ( 0.000000e+00 +/- 0.000000e+00) [K]
    Coulombic Real/kʙ       0.000000e+00 ( 0.000000e+00 +/- 0.000000e+00) [K]
    Coulombic Fourier/kʙ    0.000000e+00 ( 0.000000e+00 +/- 0.000000e+00) [K]
Molecule-molecule
    Van der Waals/kʙ       -2.006619e+05 (-2.162148e+05 +/- 0.000000e+00) [K]
    Van der Waals (Tail)/kʙ-6.439734e+03 (-6.871557e+03 +/- 0.000000e+00) [K]
    Coulombic Real/kʙ      -6.101996e+04 (-6.567292e+04 +/- 0.000000e+00) [K]
    Coulombic Fourier/kʙ   -8.920421e+03 (-1.007869e+04 +/- 0.000000e+00) [K]
    Molecule Intra/kʙ       0.000000e+00 ( 0.000000e+00 +/- 0.000000e+00) [K]

Current cycle: 1200 out of 5000
===============================================================================

Box:      24.59275   0.00000   0.00000  Average:  24.15148   0.00000   0.00000
           0.00000  24.59275   0.00000             0.00000  24.15148   0.00000
           0.00000   0.00000  24.59275             0.00000   0.00000  24.15148
Lengths:  24.59275  24.59275  24.59275  Average:  24.15148  24.15148  24.15148
Angles:   90.00000  90.00000  90.00000  Average:  90.00000  90.00000  90.00000
Rectangular boundary conditions

net charge:   0.00000000

component 0 (CO2) lambda:  0 occupancy:  1 (1.000000)
    net charge:   0.00000000 [e]

Amount of molecules per component :
-------------------------------------------------------------------------------
Component 0 (CO2)
    molecules:      2.000000e+02 molecules  (2.000000e+02 +/- 0.000000e+00)
    number density: 1.344649e-02 molec./A^3 (1.420999e-02 +/- 0.000000e+00)
    density:        9.824236e+02 kg/m^3     (1.038206e+03 +/- 0.000000e+00)

Average pressure tensor: 
-------------------------------------------------------------------------------
 2.7532e+00 -5.9746e+00 -5.4793e+01 +/- 0.0000e+00 0.0000e+00 0.0000e+00 [bar]
-5.9746e+00  6.4833e+01  1.1481e+01 +/- 0.0000e+00 0.0000e+00 0.0000e+00 [bar]
-5.4793e+01  1.1481e+01 -7.0080e+00 +/- 0.0000e+00 0.0000e+00 0.0000e+00 [bar]
Ideal-gas pressure:   4.904757e+02 +/ 0.000000e+00 [bar]
Excess pressure:     -4.702829e+02 +/ 0.000000e+00 [bar]
Pressure:             2.019284e+01 +/ 0.000000e+00 [bar]

Total potential energy/kʙ  -2.869361e+05 (-2.979003e+05 +/- 0.000000e+00) [K]
-------------------------------------------------------------------------------
ExternalField-molecule
    Van der Waals/kʙ        0.000000e+00 ( 0.000000e+00 +/- 0.000000e+00) [K]
Framework-molecule
    Van der Waals/kʙ        0.000000e+00 ( 0.000000e+00 +/- 0.000000e+00) [K]
    Van der Waals (Tail)/kʙ 0.000000e+00 ( 0.000000e+00 +/- 0.000000e+00) [K]
    Coulombic Real/kʙ       0.000000e+00 ( 0.000000e+00 +/- 0.000000e+00) [K]
    Coulombic Fourier/kʙ    0.000000e+00 ( 0.000000e+00 +/- 0.000000e+00) [K]
Molecule-molecule
    Van der Waals/kʙ       -2.051295e+05 (-2.154913e+05 +/- 0.000000e+00) [K]
    Van der Waals (Tail)/kʙ-6.483601e+03 (-6.849905e+03 +/- 0.000000e+00) [K]
    Coulombic Real/kʙ      -6.470678e+04 (-6.551277e+04 +/- 0.000000e+00) [K]
    Coulombic Fourier/kʙ   -1.061628e+04 (-1.004628e+04 +/- 0.000000e+00) [K]
    Molecule Intra/kʙ       0.000000e+00 ( 0.000000e+00 +/- 0.000000e+00) [K]

Current cycle: 1300 out of 5000
===============================================================================

Box:      23.97517   0.00000   0.00000  Average:  24.16642   0.00000   0.00000
           0.00000  23.97517   0.00000             0.00000  24.16642   0.00000
           0.00000   0.00000  23.97517             0.00000   0.00000  24.16642
Lengths:  23.97517  23.97517  23.97517  Average:  24.16642  24.16642  24.16642
Angles:   90.00000  90.00000  90.00000  Average:  90.00000  90.00000  90.00000
Rectangular boundary conditions

net charge:   0.00000000

component 0 (CO2) lambda:  0 occupancy:  1 (1.000000)
    net charge:   0.00000000 [e]

Amount of molecules per component :
-------------------------------------------------------------------------------
Component 0 (CO2)
    molecules:      2.000000e+02 molecules  (2.000000e+02 +/- 0.000000e+00)
    number density: 1.451259e-02 molec./A^3 (1.418325e-02 +/- 0.000000e+00)
    density:        1.060314e+03 kg/m^3     (1.036252e+03 +/- 0.000000e+00)

Average pressure tensor: 
-------------------------------------------------------------------------------
 4.5500e+00 -4.7598e+00 -4.7565e+01 +/- 0.0000e+00 0.0000e+00 0.0000e+00 [bar]
-4.7598e+00  6.1647e+01  4.9001e+00 +/- 0.0000e+00 0.0000e+00 0.0000e+00 [bar]
-4.7565e+01  4.9001e+00  1.3960e+00 +/- 0.0000e+00 0.0000e+00 0.0000e+00 [bar]
Ideal-gas pressure:   4.895526e+02 +/ 0.000000e+00 [bar]
Excess pressure:     -4.670214e+02 +/ 0.000000e+00 [bar]
Pressure:             2.253116e+01 +/ 0.000000e+00 [bar]

Total potential energy/kʙ  -3.025681e+05 (-2.973641e+05 +/- 0.000000e+00) [K]
-------------------------------------------------------------------------------
ExternalField-molecule
    Van der Waals/kʙ        0.000000e+00 ( 0.000000e+00 +/- 0.000000e+00) [K]
Framework-molecule
    Van der Waals/kʙ        0.000000e+00 ( 0.000000e+00 +/- 0.000000e+00) [K]
    Van der Waals (Tail)/kʙ 0.000000e+00 ( 0.000000e+00 +/- 0.000000e+00) [K]
    Coulombic Real/kʙ       0.000000e+00 ( 0.000000e+00 +/- 0.000000e+00) [K]
    Coulombic Fourier/kʙ    0.000000e+00 ( 0.000000e+00 +/- 0.000000e+00) [K]
Molecule-molecule
    Van der Waals/kʙ       -2.164528e+05 (-2.150130e+05 +/- 0.000000e+00) [K]
    Van der Waals (Tail)/kʙ-6.997648e+03 (-6.838792e+03 +/- 0.000000e+00) [K]
    Coulombic Real/kʙ      -6.925928e+04 (-6.547557e+04 +/- 0.000000e+00) [K]
    Coulombic Fourier/kʙ   -9.858390e+03 (-1.003671e+04 +/- 0.000000e+00) [K]
    Molecule Intra/kʙ       0.000000e+00 ( 0.000000e+00 +/- 0.000000e+00) [K]

Current cycle: 1400 out of 5000
===============================================================================

Box:      24.04708   0.00000   0.00000  Average:  24.14889   0.00000   0.00000
           0.00000  24.04708   0.00000             0.00000  24.14889   0.00000
           0.00000   0.00000  24.04708             0.00000   0.00000  24.14889
Lengths:  24.04708  24.04708  24.04708  Average:  24.14889  24.14889  24.14889
Angles:   90.00000  90.00000  90.00000  Average:  90.00000  90.00000  90.00000
Rectangular boundary conditions

net charge:   0.00000000

component 0 (CO2) lambda:  0 occupancy:  1 (1.000000)
    net charge:   0.00000000 [e]

Amount of molecules per component :
-------------------------------------------------------------------------------
Component 0 (CO2)
    molecules:      2.000000e+02 molecules  (2.000000e+02 +/- 0.000000e+00)
    number density: 1.438279e-02 molec./A^3 (1.421390e-02 +/- 0.000000e+00)
    density:        1.050831e+03 kg/m^3     (1.038492e+03 +/- 0.000000e+00)

Average pressure tensor: 
-------------------------------------------------------------------------------
 2.5705e+01 -1.4999e+00 -3.9245e+01 +/- 0.0000e+00 0.0000e+00 0.0000e+00 [bar]
-1.4999e+00  6.9171e+01 -3.5156e+00 +/- 0.0000e+00 0.0000e+00 0.0000e+00 [bar]
-3.9245e+01 -3.5156e+00 -9.8460e+00 +/- 0.0000e+00 0.0000e+00 0.0000e+00 [bar]
Ideal-gas pressure:   4.906105e+02 +/ 0.000000e+00 [bar]
Excess pressure:     -4.622673e+02 +/ 0.000000e+00 [bar]
Pressure:             2.834323e+01 +/ 0.000000e+00 [bar]

Total potential energy/kʙ  -3.114463e+05 (-2.980599e+05 +/- 0.000000e+00) [K]
-------------------------------------------------------------------------------
ExternalField-molecule
    Van der Waals/kʙ        0.000000e+00 ( 0.000000e+00 +/- 0.000000e+00) [K]
Framework-molecule
    Van der Waals/kʙ        0.000000e+00 ( 0.000000e+00 +/- 0.000000e+00) [K]
    Van der Waals (Tail)/kʙ 0.000000e+00 ( 0.000000e+00 +/- 0.000000e+00) [K]
    Coulombic Real/kʙ       0.000000e+00 ( 0.000000e+00 +/- 0.000000e+00) [K]
    Coulombic Fourier/kʙ    0.000000e+00 ( 0.000000e+00 +/- 0.000000e+00) [K]
Molecule-molecule
    Van der Waals/kʙ       -2.275934e+05 (-2.155830e+05 +/- 0.000000e+00) [K]
    Van der Waals (Tail)/kʙ-6.935064e+03 (-6.852838e+03 +/- 0.000000e+00) [K]
    Coulombic Real/kʙ      -6.596000e+04 (-6.555738e+04 +/- 0.000000e+00) [K]
    Coulombic Fourier/kʙ   -1.095787e+04 (-1.006666e+04 +/- 0.000000e+00) [K]
    Molecule Intra/kʙ       0.000000e+00 ( 0.000000e+00 +/- 0.000000e+00) [K]

Current cycle: 1500 out of 5000
===============================================================================

Box:      23.97221   0.00000   0.00000  Average:  24.13793   0.00000   0.00000
           0.00000  23.97221   0.00000             0.00000  24.13793   0.00000
           0.00000   0.00000  23.97221             0.00000   0.00000  24.13793
Lengths:  23.97221  23.97221  23.97221  Average:  24.13793  24.13793  24.13793
Angles:   90.00000  90.00000  90.00000  Average:  90.00000  90.00000  90.00000
Rectangular boundary conditions

net charge:   0.00000000

component 0 (CO2) lambda:  0 occupancy:  1 (1.000000)
    net charge:   0.00000000 [e]

Amount of molecules per component :
-------------------------------------------------------------------------------
Component 0 (CO2)
    molecules:      2.000000e+02 molecules  (2.000000e+02 +/- 0.000000e+00)
    number density: 1.451796e-02 molec./A^3 (1.423282e-02 +/- 0.000000e+00)
    density:        1.060707e+03 kg/m^3     (1.039874e+03 +/- 0.000000e+00)

Average pressure tensor: 
-------------------------------------------------------------------------------
 2.6788e+01 -9.3351e-01 -3.0277e+01 +/- 0.0000e+00 0.0000e+00 0.0000e+00 [bar]
-9.3351e-01  6.4055e+01 -1.6394e+01 +/- 0.0000e+00 0.0000e+00 0.0000e+00 [bar]
-3.0277e+01 -1.6394e+01 -1.9294e+00 +/- 0.0000e+00 0.0000e+00 0.0000e+00 [bar]
Ideal-gas pressure:   4.912636e+02 +/ 0.000000e+00 [bar]
Excess pressure:     -4.616258e+02 +/ 0.000000e+00 [bar]
Pressure:             2.963771e+01 +/ 0.000000e+00 [bar]

Total potential energy/kʙ  -3.046520e+05 (-2.983525e+05 +/- 0.000000e+00) [K]
-------------------------------------------------------------------------------
ExternalField-molecule
    Van der Waals/kʙ        0.000000e+00 ( 0.000000e+00 +/- 0.000000e+00) [K]
Framework-molecule
    Van der Waals/kʙ        0.000000e+00 ( 0.000000e+00 +/- 0.000000e+00) [K]
    Van der Waals (Tail)/kʙ 0.000000e+00 ( 0.000000e+00 +/- 0.000000e+00) [K]
    Coulombic Real/kʙ       0.000000e+00 ( 0.000000e+00 +/- 0.000000e+00) [K]
    Coulombic Fourier/kʙ    0.000000e+00 ( 0.000000e+00 +/- 0.000000e+00) [K]
Molecule-molecule
    Van der Waals/kʙ       -2.233825e+05 (-2.157197e+05 +/- 0.000000e+00) [K]
    Van der Waals (Tail)/kʙ-7.000240e+03 (-6.861980e+03 +/- 0.000000e+00) [K]
    Coulombic Real/kʙ      -6.398381e+04 (-6.567366e+04 +/- 0.000000e+00) [K]
    Coulombic Fourier/kʙ   -1.028546e+04 (-1.009715e+04 +/- 0.000000e+00) [K]
    Molecule Intra/kʙ       0.000000e+00 ( 0.000000e+00 +/- 0.000000e+00) [K]

Current cycle: 1600 out of 5000
===============================================================================

Box:      23.77774   0.00000   0.00000  Average:  24.11857   0.00000   0.00000
           0.00000  23.77774   0.00000             0.00000  24.11857   0.00000
           0.00000   0.00000  23.77774             0.00000   0.00000  24.11857
Lengths:  23.77774  23.77774  23.77774  Average:  24.11857  24.11857  24.11857
Angles:   90.00000  90.00000  90.00000  Average:  90.00000  90.00000  90.00000
Rectangular boundary conditions

net charge:   0.00000000

component 0 (CO2) lambda:  0 occupancy:  1 (1.000000)
    net charge:   0.00000000 [e]

Amount of molecules per component :
-------------------------------------------------------------------------------
Component 0 (CO2)
    molecules:      2.000000e+02 molecules  (2.000000e+02 +/- 0.000000e+00)
    number density: 1.487710e-02 molec./A^3 (1.426725e-02 +/- 0.000000e+00)
    density:        1.086947e+03 kg/m^3     (1.042390e+03 +/- 0.000000e+00)

Average pressure tensor: 
-------------------------------------------------------------------------------
 3.7965e+01 -3.6873e-01 -2.5517e+01 +/- 0.0000e+00 0.0000e+00 0.0000e+00 [bar]
-3.6873e-01  5.1749e+01 -2.3438e+01 +/- 0.0000e+00 0.0000e+00 0.0000e+00 [bar]
-2.5517e+01 -2.3438e+01  1.4271e+01 +/- 0.0000e+00 0.0000e+00 0.0000e+00 [bar]
Ideal-gas pressure:   4.924522e+02 +/ 0.000000e+00 [bar]
Excess pressure:     -4.577907e+02 +/ 0.000000e+00 [bar]
Pressure:             3.466148e+01 +/ 0.000000e+00 [bar]

Total potential energy/kʙ  -3.118299e+05 (-2.991806e+05 +/- 0.000000e+00) [K]
-------------------------------------------------------------------------------
ExternalField-molecule
    Van der Waals/kʙ        0.000000e+00 ( 0.000000e+00 +/- 0.000000e+00) [K]
Framework-molecule
    Van der Waals/kʙ        0.000000e+00 ( 0.000000e+00 +/- 0.000000e+00) [K]
    Van der Waals (Tail)/kʙ 0.000000e+00 ( 0.000000e+00 +/- 0.000000e+00) [K]
    Coulombic Real/kʙ       0.000000e+00 ( 0.000000e+00 +/- 0.000000e+00) [K]
    Coulombic Fourier/kʙ    0.000000e+00 ( 0.000000e+00 +/- 0.000000e+00) [K]
Molecule-molecule
    Van der Waals/kʙ       -2.251490e+05 (-2.162978e+05 +/- 0.000000e+00) [K]
    Van der Waals (Tail)/kʙ-7.173410e+03 (-6.880602e+03 +/- 0.000000e+00) [K]
    Coulombic Real/kʙ      -6.992330e+04 (-6.591759e+04 +/- 0.000000e+00) [K]
    Coulombic Fourier/kʙ   -9.584167e+03 (-1.008463e+04 +/- 0.000000e+00) [K]
    Molecule Intra/kʙ       0.000000e+00 ( 0.000000e+00 +/- 0.000000e+00) [K]

Current cycle: 1700 out of 5000
===============================================================================

Box:      24.05386   0.00000   0.00000  Average:  24.11817   0.00000   0.00000
           0.00000  24.05386   0.00000             0.00000  24.11817   0.00000
           0.00000   0.00000  24.05386             0.00000   0.00000  24.11817
Lengths:  24.05386  24.05386  24.05386  Average:  24.11817  24.11817  24.11817
Angles:   90.00000  90.00000  90.00000  Average:  90.00000  90.00000  90.00000
Rectangular boundary conditions

net charge:   0.00000000

component 0 (CO2) lambda:  0 occupancy:  1 (1.000000)
    net charge:   0.00000000 [e]

Amount of molecules per component :
-------------------------------------------------------------------------------
Component 0 (CO2)
    molecules:      2.000000e+02 molecules  (2.000000e+02 +/- 0.000000e+00)
    number density: 1.437063e-02 molec./A^3 (1.426756e-02 +/- 0.000000e+00)
    density:        1.049943e+03 kg/m^3     (1.042412e+03 +/- 0.000000e+00)

Average pressure tensor: 
-------------------------------------------------------------------------------
 4.5220e+01  2.6453e+00 -1.9596e+01 +/- 0.0000e+00 0.0000e+00 0.0000e+00 [bar]
 2.6453e+00  5.2647e+01 -2.7015e+01 +/- 0.0000e+00 0.0000e+00 0.0000e+00 [bar]
-1.9596e+01 -2.7015e+01  7.9537e+00 +/- 0.0000e+00 0.0000e+00 0.0000e+00 [bar]
Ideal-gas pressure:   4.924626e+02 +/ 0.000000e+00 [bar]
Excess pressure:     -4.571890e+02 +/ 0.000000e+00 [bar]
Pressure:             3.527369e+01 +/ 0.000000e+00 [bar]

Total potential energy/kʙ  -2.954217e+05 (-2.991146e+05 +/- 0.000000e+00) [K]
-------------------------------------------------------------------------------
ExternalField-molecule
    Van der Waals/kʙ        0.000000e+00 ( 0.000000e+00 +/- 0.000000e+00) [K]
Framework-molecule
    Van der Waals/kʙ        0.000000e+00 ( 0.000000e+00 +/- 0.000000e+00) [K]
    Van der Waals (Tail)/kʙ 0.000000e+00 ( 0.000000e+00 +/- 0.000000e+00) [K]
    Coulombic Real/kʙ       0.000000e+00 ( 0.000000e+00 +/- 0.000000e+00) [K]
    Coulombic Fourier/kʙ    0.000000e+00 ( 0.000000e+00 +/- 0.000000e+00) [K]
Molecule-molecule
    Van der Waals/kʙ       -2.142675e+05 (-2.163137e+05 +/- 0.000000e+00) [K]
    Van der Waals (Tail)/kʙ-6.929202e+03 (-6.880260e+03 +/- 0.000000e+00) [K]
    Coulombic Real/kʙ      -6.466397e+04 (-6.588884e+04 +/- 0.000000e+00) [K]
    Coulombic Fourier/kʙ   -9.561114e+03 (-1.003174e+04 +/- 0.000000e+00) [K]
    Molecule Intra/kʙ       0.000000e+00 ( 0.000000e+00 +/- 0.000000e+00) [K]

Current cycle: 1800 out of 5000
===============================================================================

Box:      24.26009   0.00000   0.00000  Average:  24.12525   0.00000   0.00000
           0.00000  24.26009   0.00000             0.00000  24.12525   0.00000
           0.00000   0.00000  24.26009             0.00000   0.00000  24.12525
Lengths:  24.26009  24.26009  24.26009  Average:  24.12525  24.12525  24.12525
Angles:   90.00000  90.00000  90.00000  Average:  90.00000  90.00000  90.00000
Rectangular boundary conditions

net charge:   0.00000000

component 0 (CO2) lambda:  0 occupancy:  1 (1.000000)
    net charge:   0.00000000 [e]

Amount of molecules per component :
-------------------------------------------------------------------------------
Component 0 (CO2)
    molecules:      2.000000e+02 molecules  (2.000000e+02 +/- 0.000000e+00)
    number density: 1.400725e-02 molec./A^3 (1.425461e-02 +/- 0.000000e+00)
    density:        1.023394e+03 kg/m^3     (1.041466e+03 +/- 0.000000e+00)

Average pressure tensor: 
-------------------------------------------------------------------------------
 4.7355e+01  5.3357e+00 -1.2614e+01 +/- 0.0000e+00 0.0000e+00 0.0000e+00 [bar]
 5.3357e+00  5.2168e+01 -2.7943e+01 +/- 0.0000e+00 0.0000e+00 0.0000e+00 [bar]
-1.2614e+01 -2.7943e+01  1.2495e+01 +/- 0.0000e+00 0.0000e+00 0.0000e+00 [bar]
Ideal-gas pressure:   4.920157e+02 +/ 0.000000e+00 [bar]
Excess pressure:     -4.546765e+02 +/ 0.000000e+00 [bar]
Pressure:             3.733927e+01 +/ 0.000000e+00 [bar]

Total potential energy/kʙ  -2.919215e+05 (-2.988654e+05 +/- 0.000000e+00) [K]
-------------------------------------------------------------------------------
ExternalField-molecule
    Van der Waals/kʙ        0.000000e+00 ( 0.000000e+00 +/- 0.000000e+00) [K]
Framework-molecule
    Van der Waals/kʙ        0.000000e+00 ( 0.000000e+00 +/- 0.000000e+00) [K]
    Van der Waals (Tail)/kʙ 0.000000e+00 ( 0.000000e+00 +/- 0.000000e+00) [K]
    Coulombic Real/kʙ       0.000000e+00 ( 0.000000e+00 +/- 0.000000e+00) [K]
    Coulombic Fourier/kʙ    0.000000e+00 ( 0.000000e+00 +/- 0.000000e+00) [K]
Molecule-molecule
    Van der Waals/kʙ       -2.079167e+05 (-2.160173e+05 +/- 0.000000e+00) [K]
    Van der Waals (Tail)/kʙ-6.753986e+03 (-6.874280e+03 +/- 0.000000e+00) [K]
    Coulombic Real/kʙ      -6.728920e+04 (-6.596713e+04 +/- 0.000000e+00) [K]
    Coulombic Fourier/kʙ   -9.961593e+03 (-1.000665e+04 +/- 0.000000e+00) [K]
    Molecule Intra/kʙ       0.000000e+00 ( 0.000000e+00 +/- 0.000000e+00) [K]

Current cycle: 1900 out of 5000
===============================================================================

Box:      24.18289   0.00000   0.00000  Average:  24.12774   0.00000   0.00000
           0.00000  24.18289   0.00000             0.00000  24.12774   0.00000
           0.00000   0.00000  24.18289             0.00000   0.00000  24.12774
Lengths:  24.18289  24.18289  24.18289  Average:  24.12774  24.12774  24.12774
Angles:   90.00000  90.00000  90.00000  Average:  90.00000  90.00000  90.00000
Rectangular boundary conditions

net charge:   0.00000000

component 0 (CO2) lambda:  0 occupancy:  1 (1.000000)
    net charge:   0.00000000 [e]

Amount of molecules per component :
-------------------------------------------------------------------------------
Component 0 (CO2)
    molecules:      2.000000e+02 molecules  (2.000000e+02 +/- 0.000000e+00)
    number density: 1.414182e-02 molec./A^3 (1.424972e-02 +/- 0.000000e+00)
    density:        1.033226e+03 kg/m^3     (1.041109e+03 +/- 0.000000e+00)

Average pressure tensor: 
-------------------------------------------------------------------------------
 6.6600e+01  1.0375e+01 -1.2283e+01 +/- 0.0000e+00 0.0000e+00 0.0000e+00 [bar]
 1.0375e+01  4.5893e+01 -3.2368e+01 +/- 0.0000e+00 0.0000e+00 0.0000e+00 [bar]
-1.2283e+01 -3.2368e+01  1.1814e+01 +/- 0.0000e+00 0.0000e+00 0.0000e+00 [bar]
Ideal-gas pressure:   4.918471e+02 +/ 0.000000e+00 [bar]
Excess pressure:     -4.504117e+02 +/ 0.000000e+00 [bar]
Pressure:             4.143540e+01 +/ 0.000000e+00 [bar]

Total potential energy/kʙ  -2.906740e+05 (-2.986772e+05 +/- 0.000000e+00) [K]
-------------------------------------------------------------------------------
ExternalField-molecule
    Van der Waals/kʙ        0.000000e+00 ( 0.000000e+00 +/- 0.000000e+00) [K]
Framework-molecule
    Van der Waals/kʙ        0.000000e+00 ( 0.000000e+00 +/- 0.000000e+00) [K]
    Van der Waals (Tail)/kʙ 0.000000e+00 ( 0.000000e+00 +/- 0.000000e+00) [K]
    Coulombic Real/kʙ       0.000000e+00 ( 0.000000e+00 +/- 0.000000e+00) [K]
    Coulombic Fourier/kʙ    0.000000e+00 ( 0.000000e+00 +/- 0.000000e+00) [K]
Molecule-molecule
    Van der Waals/kʙ       -2.100986e+05 (-2.158551e+05 +/- 0.000000e+00) [K]
    Van der Waals (Tail)/kʙ-6.818873e+03 (-6.872067e+03 +/- 0.000000e+00) [K]
    Coulombic Real/kʙ      -6.340648e+04 (-6.594854e+04 +/- 0.000000e+00) [K]
    Coulombic Fourier/kʙ   -1.034999e+04 (-1.000148e+04 +/- 0.000000e+00) [K]
    Molecule Intra/kʙ       0.000000e+00 ( 0.000000e+00 +/- 0.000000e+00) [K]

Current cycle: 2000 out of 5000
===============================================================================

Box:      24.55244   0.00000   0.00000  Average:  24.14139   0.00000   0.00000
           0.00000  24.55244   0.00000             0.00000  24.14139   0.00000
           0.00000   0.00000  24.55244             0.00000   0.00000  24.14139
Lengths:  24.55244  24.55244  24.55244  Average:  24.14139  24.14139  24.14139
Angles:   90.00000  90.00000  90.00000  Average:  90.00000  90.00000  90.00000
Rectangular boundary conditions

net charge:   0.00000000

component 0 (CO2) lambda:  0 occupancy:  1 (1.000000)
    net charge:   0.00000000 [e]

Amount of molecules per component :
-------------------------------------------------------------------------------
Component 0 (CO2)
    molecules:      2.000000e+02 molecules  (2.000000e+02 +/- 0.000000e+00)
    number density: 1.351282e-02 molec./A^3 (1.422565e-02 +/- 0.000000e+00)
    density:        9.872694e+02 kg/m^3     (1.039351e+03 +/- 0.000000e+00)

Average pressure tensor: 
-------------------------------------------------------------------------------
 7.3529e+01  6.1174e+00 -1.9497e+00 +/- 0.0000e+00 0.0000e+00 0.0000e+00 [bar]
 6.1174e+00  4.7766e+01 -3.6682e+01 +/- 0.0000e+00 0.0000e+00 0.0000e+00 [bar]
-1.9497e+00 -3.6682e+01  1.2897e+01 +/- 0.0000e+00 0.0000e+00 0.0000e+00 [bar]
Ideal-gas pressure:   4.910163e+02 +/ 0.000000e+00 [bar]
Excess pressure:     -4.462859e+02 +/ 0.000000e+00 [bar]
Pressure:             4.473040e+01 +/ 0.000000e+00 [bar]

Total potential energy/kʙ  -2.888661e+05 (-2.980459e+05 +/- 0.000000e+00) [K]
-------------------------------------------------------------------------------
ExternalField-molecule
    Van der Waals/kʙ        0.000000e+00 ( 0.000000e+00 +/- 0.000000e+00) [K]
Framework-molecule
    Van der Waals/kʙ        0.000000e+00 ( 0.000000e+00 +/- 0.000000e+00) [K]
    Van der Waals (Tail)/kʙ 0.000000e+00 ( 0.000000e+00 +/- 0.000000e+00) [K]
    Coulombic Real/kʙ       0.000000e+00 ( 0.000000e+00 +/- 0.000000e+00) [K]
    Coulombic Fourier/kʙ    0.000000e+00 ( 0.000000e+00 +/- 0.000000e+00) [K]
Molecule-molecule
    Van der Waals/kʙ       -2.086856e+05 (-2.153804e+05 +/- 0.000000e+00) [K]
    Van der Waals (Tail)/kʙ-6.515581e+03 (-6.860509e+03 +/- 0.000000e+00) [K]
    Coulombic Real/kʙ      -6.378978e+04 (-6.581474e+04 +/- 0.000000e+00) [K]
    Coulombic Fourier/kʙ   -9.875214e+03 (-9.990243e+03 +/- 0.000000e+00) [K]
    Molecule Intra/kʙ       0.000000e+00 ( 0.000000e+00 +/- 0.000000e+00) [K]

Current cycle: 2100 out of 5000
===============================================================================

Box:      24.38732   0.00000   0.00000  Average:  24.15856   0.00000   0.00000
           0.00000  24.38732   0.00000             0.00000  24.15856   0.00000
           0.00000   0.00000  24.38732             0.00000   0.00000  24.15856
Lengths:  24.38732  24.38732  24.38732  Average:  24.15856  24.15856  24.15856
Angles:   90.00000  90.00000  90.00000  Average:  90.00000  90.00000  90.00000
Rectangular boundary conditions

net charge:   0.00000000

component 0 (CO2) lambda:  0 occupancy:  1 (1.000000)
    net charge:   0.00000000 [e]

Amount of molecules per component :
-------------------------------------------------------------------------------
Component 0 (CO2)
    molecules:      2.000000e+02 molecules  (2.000000e+02 +/- 0.000000e+00)
    number density: 1.378916e-02 molec./A^3 (1.419577e-02 +/- 0.000000e+00)
    density:        1.007460e+03 kg/m^3     (1.037168e+03 +/- 0.000000e+00)

Average pressure tensor: 
-------------------------------------------------------------------------------
 6.0210e+01  2.6587e+00 -2.2090e+00 +/- 0.0000e+00 0.0000e+00 0.0000e+00 [bar]
 2.6587e+00  3.6385e+01 -3.6777e+01 +/- 0.0000e+00 0.0000e+00 0.0000e+00 [bar]
-2.2090e+00 -3.6777e+01  9.7928e+00 +/- 0.0000e+00 0.0000e+00 0.0000e+00 [bar]
Ideal-gas pressure:   4.899850e+02 +/ 0.000000e+00 [bar]
Excess pressure:     -4.545224e+02 +/ 0.000000e+00 [bar]
Pressure:             3.546266e+01 +/ 0.000000e+00 [bar]

Total potential energy/kʙ  -2.897741e+05 (-2.974899e+05 +/- 0.000000e+00) [K]
-------------------------------------------------------------------------------
ExternalField-molecule
    Van der Waals/kʙ        0.000000e+00 ( 0.000000e+00 +/- 0.000000e+00) [K]
Framework-molecule
    Van der Waals/kʙ        0.000000e+00 ( 0.000000e+00 +/- 0.000000e+00) [K]
    Van der Waals (Tail)/kʙ 0.000000e+00 ( 0.000000e+00 +/- 0.000000e+00) [K]
[...]
    Coulombic Fourier/kʙ    0.000000e+00 ( 0.000000e+00 +/- 0.000000e+00) [K]
Molecule-molecule
    Van der Waals/kʙ       -2.128469e+05 (-2.152753e+05 +/- 2.566044e+03) [K]
    Van der Waals (Tail)/kʙ-6.698985e+03 (-6.860735e+03 +/- 7.101211e+01) [K]
    Coulombic Real/kʙ      -6.460603e+04 (-6.591453e+04 +/- 6.188170e+02) [K]
    Coulombic Fourier/kʙ   -9.892870e+03 (-9.977773e+03 +/- 1.562005e+02) [K]
    Molecule Intra/kʙ       0.000000e+00 ( 0.000000e+00 +/- 0.000000e+00) [K]

Current cycle: 4700 out of 5000
===============================================================================

Box:      24.38076   0.00000   0.00000  Average:  24.14462   0.00000   0.00000
           0.00000  24.38076   0.00000             0.00000  24.14462   0.00000
           0.00000   0.00000  24.38076             0.00000   0.00000  24.14462
Lengths:  24.38076  24.38076  24.38076  Average:  24.14462  24.14462  24.14462
Angles:   90.00000  90.00000  90.00000  Average:  90.00000  90.00000  90.00000
Rectangular boundary conditions

net charge:   0.00000000

component 0 (CO2) lambda:  0 occupancy:  1 (1.000000)
    net charge:   0.00000000 [e]

Amount of molecules per component :
-------------------------------------------------------------------------------
Component 0 (CO2)
    molecules:      2.000000e+02 molecules  (2.000000e+02 +/- 0.000000e+00)
    number density: 1.380029e-02 molec./A^3 (1.421726e-02 +/- 1.304417e-04)
    density:        1.008273e+03 kg/m^3     (1.038737e+03 +/- 9.530290e+00)

Average pressure tensor: 
-------------------------------------------------------------------------------
 6.5243e+01 -1.6306e+00  3.2005e+00 +/- 8.6056e+01 3.5412e+01 7.8074e+01 [bar]
-1.6306e+00  5.9459e+01 -9.1463e+00 +/- 3.5412e+01 4.9491e+01 5.9283e+01 [bar]
 3.2005e+00 -9.1463e+00  5.1480e+01 +/- 7.8074e+01 5.9283e+01 5.1903e+01 [bar]
Ideal-gas pressure:   4.907265e+02 +/ 4.502358e+00 [bar]
Excess pressure:     -4.319995e+02 +/ 3.003197e+01 [bar]
Pressure:             5.872704e+01 +/ 2.645088e+01 [bar]

Total potential energy/kʙ  -2.890752e+05 (-2.979363e+05 +/- 2.996671e+03) [K]
-------------------------------------------------------------------------------
ExternalField-molecule
    Van der Waals/kʙ        0.000000e+00 ( 0.000000e+00 +/- 0.000000e+00) [K]
Framework-molecule
    Van der Waals/kʙ        0.000000e+00 ( 0.000000e+00 +/- 0.000000e+00) [K]
    Van der Waals (Tail)/kʙ 0.000000e+00 ( 0.000000e+00 +/- 0.000000e+00) [K]
    Coulombic Real/kʙ       0.000000e+00 ( 0.000000e+00 +/- 0.000000e+00) [K]
    Coulombic Fourier/kʙ    0.000000e+00 ( 0.000000e+00 +/- 0.000000e+00) [K]
Molecule-molecule
    Van der Waals/kʙ       -2.119977e+05 (-2.152380e+05 +/- 2.354281e+03) [K]
    Van der Waals (Tail)/kʙ-6.654196e+03 (-6.858413e+03 +/- 6.007344e+01) [K]
    Coulombic Real/kʙ      -6.138775e+04 (-6.586556e+04 +/- 4.838718e+02) [K]
    Coulombic Fourier/kʙ   -9.035583e+03 (-9.974329e+03 +/- 1.466802e+02) [K]
    Molecule Intra/kʙ       0.000000e+00 ( 0.000000e+00 +/- 0.000000e+00) [K]

Current cycle: 4800 out of 5000
===============================================================================

Box:      24.28877   0.00000   0.00000  Average:  24.15055   0.00000   0.00000
           0.00000  24.28877   0.00000             0.00000  24.15055   0.00000
           0.00000   0.00000  24.28877             0.00000   0.00000  24.15055
Lengths:  24.28877  24.28877  24.28877  Average:  24.15055  24.15055  24.15055
Angles:   90.00000  90.00000  90.00000  Average:  90.00000  90.00000  90.00000
Rectangular boundary conditions

net charge:   0.00000000

component 0 (CO2) lambda:  0 occupancy:  1 (1.000000)
    net charge:   0.00000000 [e]

Amount of molecules per component :
-------------------------------------------------------------------------------
Component 0 (CO2)
    molecules:      2.000000e+02 molecules  (2.000000e+02 +/- 0.000000e+00)
    number density: 1.395769e-02 molec./A^3 (1.420691e-02 +/- 1.070781e-04)
    density:        1.019773e+03 kg/m^3     (1.037981e+03 +/- 7.823310e+00)

Average pressure tensor: 
-------------------------------------------------------------------------------
 6.6104e+01 -3.5030e+00  5.4197e+00 +/- 8.6283e+01 3.7810e+01 6.9871e+01 [bar]
-3.5030e+00  5.9172e+01 -8.6634e+00 +/- 3.7810e+01 4.9225e+01 5.9249e+01 [bar]
 5.4197e+00 -8.6634e+00  4.7061e+01 +/- 6.9871e+01 5.9249e+01 5.5046e+01 [bar]
Ideal-gas pressure:   4.903694e+02 +/ 3.695936e+00 [bar]
Excess pressure:     -4.329235e+02 +/ 3.057076e+01 [bar]
Pressure:             5.744586e+01 +/ 2.710259e+01 [bar]

Total potential energy/kʙ  -2.969334e+05 (-2.977635e+05 +/- 2.675269e+03) [K]
-------------------------------------------------------------------------------
ExternalField-molecule
    Van der Waals/kʙ        0.000000e+00 ( 0.000000e+00 +/- 0.000000e+00) [K]
Framework-molecule
    Van der Waals/kʙ        0.000000e+00 ( 0.000000e+00 +/- 0.000000e+00) [K]
    Van der Waals (Tail)/kʙ 0.000000e+00 ( 0.000000e+00 +/- 0.000000e+00) [K]
    Coulombic Real/kʙ       0.000000e+00 ( 0.000000e+00 +/- 0.000000e+00) [K]
    Coulombic Fourier/kʙ    0.000000e+00 ( 0.000000e+00 +/- 0.000000e+00) [K]
Molecule-molecule
    Van der Waals/kʙ       -2.128684e+05 (-2.150835e+05 +/- 2.063722e+03) [K]
    Van der Waals (Tail)/kʙ-6.730092e+03 (-6.853689e+03 +/- 4.978390e+01) [K]
    Coulombic Real/kʙ      -6.731771e+04 (-6.586142e+04 +/- 4.708437e+02) [K]
    Coulombic Fourier/kʙ   -1.001713e+04 (-9.964902e+03 +/- 1.376999e+02) [K]
    Molecule Intra/kʙ       0.000000e+00 ( 0.000000e+00 +/- 0.000000e+00) [K]

Current cycle: 4900 out of 5000
===============================================================================

Box:      24.05082   0.00000   0.00000  Average:  24.15044   0.00000   0.00000
           0.00000  24.05082   0.00000             0.00000  24.15044   0.00000
           0.00000   0.00000  24.05082             0.00000   0.00000  24.15044
Lengths:  24.05082  24.05082  24.05082  Average:  24.15044  24.15044  24.15044
Angles:   90.00000  90.00000  90.00000  Average:  90.00000  90.00000  90.00000
Rectangular boundary conditions

net charge:   0.00000000

component 0 (CO2) lambda:  0 occupancy:  1 (1.000000)
    net charge:   0.00000000 [e]

Amount of molecules per component :
-------------------------------------------------------------------------------
Component 0 (CO2)
    molecules:      2.000000e+02 molecules  (2.000000e+02 +/- 0.000000e+00)
    number density: 1.437607e-02 molec./A^3 (1.420695e-02 +/- 1.056851e-04)
    density:        1.050340e+03 kg/m^3     (1.037984e+03 +/- 7.721537e+00)

Average pressure tensor: 
-------------------------------------------------------------------------------
 6.4931e+01 -1.2159e+00  7.0709e+00 +/- 8.5541e+01 3.2990e+01 6.5358e+01 [bar]
-1.2159e+00  6.0258e+01 -5.4584e+00 +/- 3.2990e+01 4.7954e+01 6.1923e+01 [bar]
 7.0709e+00 -5.4584e+00  4.6426e+01 +/- 6.5358e+01 6.1923e+01 5.5090e+01 [bar]
Ideal-gas pressure:   4.903709e+02 +/ 3.647855e+00 [bar]
Excess pressure:     -4.331659e+02 +/ 3.056961e+01 [bar]
Pressure:             5.720502e+01 +/ 2.713231e+01 [bar]

Total potential energy/kʙ  -3.004296e+05 (-2.978143e+05 +/- 2.699236e+03) [K]
-------------------------------------------------------------------------------
ExternalField-molecule
    Van der Waals/kʙ        0.000000e+00 ( 0.000000e+00 +/- 0.000000e+00) [K]
Framework-molecule
    Van der Waals/kʙ        0.000000e+00 ( 0.000000e+00 +/- 0.000000e+00) [K]
    Van der Waals (Tail)/kʙ 0.000000e+00 ( 0.000000e+00 +/- 0.000000e+00) [K]
    Coulombic Real/kʙ       0.000000e+00 ( 0.000000e+00 +/- 0.000000e+00) [K]
    Coulombic Fourier/kʙ    0.000000e+00 ( 0.000000e+00 +/- 0.000000e+00) [K]
Molecule-molecule
    Van der Waals/kʙ       -2.174032e+05 (-2.150949e+05 +/- 2.055242e+03) [K]
    Van der Waals (Tail)/kʙ-6.931824e+03 (-6.854080e+03 +/- 4.957219e+01) [K]
    Coulombic Real/kʙ      -6.623575e+04 (-6.589881e+04 +/- 5.121114e+02) [K]
    Coulombic Fourier/kʙ   -9.858871e+03 (-9.966507e+03 +/- 1.381248e+02) [K]
    Molecule Intra/kʙ       0.000000e+00 ( 0.000000e+00 +/- 0.000000e+00) [K]


Energy statistics             |  Energy [K]   | Recomputed [K]|  Drift [K]    |
===============================================================================
Total potential energy/kʙ     | -3.089345e+05 | -3.089345e+05 | -4.375485e-10 |
    external field VDW/kʙ     |  0.000000e+00 |  0.000000e+00 |  0.000000e+00 |
    external field Real/kʙ    |  0.000000e+00 |  0.000000e+00 |  0.000000e+00 |
    framework-molecule VDW/kʙ |  0.000000e+00 |  0.000000e+00 |  0.000000e+00 |
    framework-molecule Real/kʙ|  0.000000e+00 |  0.000000e+00 |  0.000000e+00 |
    molecule-molecule VDW/kʙ  | -2.155486e+05 | -2.155486e+05 |  3.150350e-10 |
    molecule-molecule Real/kʙ | -7.607328e+04 | -7.607328e+04 | -7.525835e-10 |
    Van der Waals (Tail)/kʙ   | -6.915106e+03 | -6.915106e+03 |  0.000000e+00 |
    Ewald Fourier/kʙ          |  7.755487e+03 |  7.755487e+03 |  0.000000e+00 |
    Ewald self/kʙ             | -4.023739e+06 | -4.023739e+06 |  0.000000e+00 |
    Ewald exclusion/kʙ        |  4.005586e+06 |  4.005586e+06 |  0.000000e+00 |
    intra VDW/kʙ              |  0.000000e+00 |  0.000000e+00 |  0.000000e+00 |
    intra Coulombic/kʙ        |  0.000000e+00 |  0.000000e+00 |  0.000000e+00 |
    polarization/kʙ           |  0.000000e+00 |  0.000000e+00 |  0.000000e+00 |
    dU/dlambda VDW/kʙ         |  0.000000e+00 |  0.000000e+00 |  0.000000e+00 |
    dU/dlambda Real/kʙ        |  0.000000e+00 |  0.000000e+00 |  0.000000e+00 |
    dU/dlambda Ewald/kʙ       |  0.000000e+00 |  0.000000e+00 |  0.000000e+00 |
-------------------------------------------------------------------------------


Monte-Carlo moves statistics
===============================================================================

    Volume change        all:                6842
    Volume change        total:              6842
    Volume change        constructed:        6842
    Volume change        accepted:           3738
    Volume change        fraction:       0.546331
    Volume change        max-change:     0.025000

Component 0 [CO2]
    Reinsertion (CBMC)   all:              331717
    Reinsertion (CBMC)   total:            331717
    Reinsertion (CBMC)   constructed:      301442
    Reinsertion (CBMC)   accepted:           6387
    Reinsertion (CBMC)   fraction:       0.019254
    Reinsertion (CBMC)   max-change:     0.000000

    Translation          all:              330014
    Translation          total:            110255     110165     109594
    Translation          constructed:      110255     110165     109592
    Translation          accepted:          54612      57917      45170
    Translation          fraction:       0.495324   0.525730   0.412158
    Translation          max-change:     0.695652   0.629630   0.900000

    Rotation             all:              331427
    Rotation             total:            110464     110607     110356
    Rotation             constructed:      110464     110607     110356
    Rotation             accepted:          61363      56232      58845
    Rotation             fraction:       0.555502   0.508395   0.533229
    Rotation             max-change:     0.583333   0.681818   0.640000



Production run counting of the MC moves summed over systems and components
===============================================================================

Volume change                          6842 (0.6842 [%])
Reinsertion (CBMC)                   331717 (33.1717 [%])
Translation                          330014 (33.0014 [%])
Rotation                             331427 (33.1427 [%])

Production count MC-steps:          1000000 [-]
               All summed:          1000000 [-]
               difference:                0 [-]


Production run CPU timings of the MC moves
===============================================================================

Component 0 CO2

Rotation                             46.237316 [s]
    Ewald                            18.673570 [s]
    ExternalField-Molecule            0.012309 [s]
    Framework-Molecule                0.011081 [s]
    Molecule-Molecule                25.827584 [s]
    Overhead                          1.712772 [s]

Reinsertion (CBMC)                  196.611045 [s]
    Ewald                            17.097285 [s]
    NonEwald                        179.157500 [s]
    Overhead                          0.356260 [s]

Translation                          46.240147 [s]
    Ewald                            18.584804 [s]
    ExternalField-Molecule            0.010820 [s]
    Framework-Molecule                0.020122 [s]
    Molecule-Molecule                26.058463 [s]
    Overhead                          1.565938 [s]



Volume change                         43.782450 [s]
    Ewald                             15.058116 [s]
    NonEwald                          26.815184 [s]
    Tail                               1.638645 [s]

Property sampling                     0.284599 [s]
Energy/pressure sampling:             6.494489 [s]


Production run CPU timings of the MC moves summed over systems and components
===============================================================================


Translation                          46.240147 [s]
    Ewald                            18.584804 [s]
    ExternalField-Molecule            0.010820 [s]
    Framework-Molecule                0.020122 [s]
    Molecule-Molecule                26.058463 [s]
    Overhead                          1.565938 [s]

Rotation                             46.237316 [s]
    Ewald                            18.673570 [s]
    ExternalField-Molecule            0.012309 [s]
    Framework-Molecule                0.011081 [s]
    Molecule-Molecule                25.827584 [s]
    Overhead                          1.712772 [s]

Volume change                        43.782450 [s]
    Ewald                            15.058116 [s]
    NonEwald                         26.815184 [s]
    Tail                              1.638645 [s]
    Overhead                          0.270505 [s]

Reinsertion (CBMC)                  196.611045 [s]
    Ewald                            17.097285 [s]
    NonEwald                        179.157500 [s]
    Overhead                          0.356260 [s]

Property sampling:                    0.284599 [s]
Energy/pressure sampling:             6.494489 [s]

Production simulation time:         340.433333 [s]
                All summed:         339.650046 [s]
                  Overhead:           0.783287 [s]


Initalization simulation time:       64.646446 [s]
Equilibration simulation time:        0.000000 [s]
Production simulation time:         340.433333 [s]
Total simulation time:              405.079779 [s]


Energy averages and statistics:
===============================================================================

Framework-molecule energy:
-------------------------------------------------------------------------------



Framework-molecule energy contributions per energy type:
-------------------------------------------------------------------------------



Inter-molecular energy:
-------------------------------------------------------------------------------

    Inter-molecular energy/kʙ 0-0 [CO2-CO2]:
    ---------------------------------------------------------------------------
        Block[  0] -3.005521e+05
        Block[  1] -2.956315e+05
        Block[  2] -2.981894e+05
        Block[  3] -2.956520e+05
        Block[  4] -2.995865e+05
        -----------------------------------------------------------------------
        Average  -2.979223e+05 +/-  2.786950e+03 [K]



Inter-molecular energy contributions per energy type:
-------------------------------------------------------------------------------

    Van der Waals energy/kʙ 0-0 [CO2-CO2]:
    ---------------------------------------------------------------------------
        Block[  0] -2.173246e+05
        Block[  1] -2.135031e+05
        Block[  2] -2.152278e+05
        Block[  3] -2.134854e+05
        Block[  4] -2.160074e+05
        -----------------------------------------------------------------------
        Average  -2.151097e+05 +/-  2.053571e+03 [K]

    VDW Tail-Correction energy/kʙ 0-0 [CO2-CO2]:
    ---------------------------------------------------------------------------
        Block[  0] -6.907930e+03
        Block[  1] -6.816537e+03
        Block[  2] -6.850472e+03
        Block[  3] -6.817281e+03
        Block[  4] -6.878919e+03
        -----------------------------------------------------------------------
        Average  -6.854228e+03 +/-  4.924325e+01 [K]

    Coulomb Real energy/kʙ 0-0 [CO2-CO2]:
    ---------------------------------------------------------------------------
        Block[  0] -6.618111e+04
        Block[  1] -6.546862e+04
        Block[  2] -6.615749e+04
        Block[  3] -6.544446e+04
        Block[  4] -6.666501e+04
        -----------------------------------------------------------------------
        Average  -6.598334e+04 +/-  6.478993e+02 [K]

    Coulomb Fourier energy/kʙ 0-0 [CO2-CO2]:
    ---------------------------------------------------------------------------
        Block[  0] -1.013840e+04
        Block[  1] -9.843235e+03
        Block[  2] -9.953626e+03
        Block[  3] -9.904888e+03
        Block[  4] -1.003520e+04
        -----------------------------------------------------------------------
        Average  -9.975069e+03 +/-  1.429813e+02 [K]


Total energy/kʙ
-------------------------------------------------------------------------------
    Block[  0] -3.005521e+05
    Block[  1] -2.956315e+05
    Block[  2] -2.981894e+05
    Block[  3] -2.956520e+05
    Block[  4] -2.995865e+05
    ---------------------------------------------------------------------------
    Average  -2.979223e+05 +/-  2.786950e+03 [K]

Pressure averages and statistics:
===============================================================================

Average pressure tensor: 
-------------------------------------------------------------------------------
 6.3157e+01 -2.5387e+00  1.2112e+01 +/- 8.5042e+01 3.4146e+01 5.9446e+01 [bar]
-2.5387e+00  6.1696e+01 -5.0154e+00 +/- 3.4146e+01 4.7113e+01 6.1651e+01 [bar]
 1.2112e+01 -5.0154e+00  4.7583e+01 +/- 5.9446e+01 6.1651e+01 5.3629e+01 [bar]

    Block[  0]  4.942328e+07
    Block[  1]  4.878244e+07
    Block[  2]  4.904353e+07
    Block[  3]  4.872826e+07
    Block[  4]  4.921992e+07
    ---------------------------------------------------------------------------
    Ideal gas pressure   4.903949e+07 +/-  2.188671e-02 [Pa]
                         4.903949e+02 +/-  3.634376e+00 [bar]


    Block[  0] -4.680801e+07
    Block[  1] -4.244348e+07
    Block[  2] -4.278811e+07
    Block[  3] -4.019886e+07
    Block[  4] -4.421971e+07
    ---------------------------------------------------------------------------
    Excess pressure  -4.329163e+07 +/-  3.025990e+06 [Pa]
                     -4.329163e+02 +/-  3.025990e+01 [bar]


    Block[  0]  2.615271e+06
    Block[  1]  6.338965e+06
    Block[  2]  6.255427e+06
    Block[  3]  8.529392e+06
    Block[  4]  5.000219e+06
    ---------------------------------------------------------------------------
    Pressure average   5.747855e+06 +/-  2.685415e+06 [Pa]
                       5.747855e+01 +/-  2.685415e+01 [bar]


Enthalpy of adsorption
===============================================================================

No fluctuating components present.


Densities
===============================================================================

Component 0 (CO2)
    Block[  0] 200
    Block[  1] 200
    Block[  2] 200
    Block[  3] 200
    Block[  4] 200
    -----------------------------------------------------------------------
    Density average   2.000000e+02 +/-  0.000000e+00 [molecules]
    Density average   1.420765e-02 +/-  1.052946e-04 [molec/A^3]
    Density average   1.038035e+03 +/-  7.693004e+00 [kg.m⁻³]

