Compiler and run-time data
===============================================================================
RASPA 3.0.4

Random seed: 2264253579

Compiled as a 64-bits application
Compiler: gcc Ubuntu Clang 18.1.3 (1ubuntu1)
Compile Date = Mar 15 2025, Compile Time = 19:39:45

2025-06-03 11:00:44.300801
Simulation started on Tue, Jun 03
The start time was 11:00:00

Hostname:    c108
OS type:     Linux on x86_64
OS release:  6.8.0-58-generic
OS version:  #60-Ubuntu SMP PREEMPT_DYNAMIC Fri Mar 14 18:29:48 UTC 2025


Mutual consistent basic set of units:
===============================================================================

Unit of temperature: 1 [K]
Unit of length:      1e-10 [m]
Unit of time:        1e-12 [s]
Unit of mass:        1.6605402e-27 [kg]
Unit of charge:      1.60217733e-19 [C/particle]


Boltzmann constant (internal units):          0.8314464919307584 [-]
represents conversion from energy (internal units) to temperature (in Kelvin)

Derived units and their conversion factors:
===============================================================================

Unit of energy:                           1.6605402000000002e-23 [J]
Unit of energy:                           10.000008872307538 [J.mol⁻¹]
Unit of velocity:                         100 [m.s⁻¹]
Unit of force:                            1.6605402000000002e-13 [N]
Unit of diffusion:                        1.0000000000000002e-08 [m².s⁻¹]
Unit of acceleration:                     1.0000000000000002e-08 [m².s⁻¹]
Unit of torque:                           1.6605402000000002e-23 [N.m]
Unit of pressure:                         16605402 [Pa]
Unit of volume:                           1e-30 [m³]
Unit of density:                          1660.5402 [kg.m⁻³]
Unit of dynamic viscosity:                1.6605401999999997e-05 [N.s.m⁻²]
Unit of enthalpy:                         1.6605402000000002e-23 [J]
Unit of polarizability:                   1.5458657349975198e-35 [-]
Unit of Coulomb potential:                167101.08000665612 [K]
Unit of dielectric constant:              1.5458657349975193e-05 [s².C².kg⁻¹.m⁻³]
Unit of dipole moment:                    1.60217733e-29 [C.m]
Unit of Debye:                            4.803206799099162 [C.m]
Unit of electric potential:               0.00010364272224473431 [V]
Unit of electric field:                   1036427.222447343 [V.m⁻¹]
Unit of isothermal compressibility:       6.02213665167516e-08 [Pa⁻¹]
Unit of heat capacity:                    10.000008872307538 [J.mol⁻¹.K⁻¹]
Unit of volumetric expansion coefficient: 1 [K⁻¹]


Internal conversion factors:
===============================================================================

Energy (internal units) to Kelvin:      1.202724284692786 [-]
Kelvin to energy (internal units):      0.8314457542157567 [-]


System definitions
===============================================================================

Temperature:          270 [K]
Beta:                 0.004454530435389873 [-]
Pressure:             0 [Pa]
Helium void fraction: 1 [-]

Box:      30.00000   0.00000   0.00000
           0.00000  30.00000   0.00000
           0.00000   0.00000  30.00000
Lengths:  30.00000  30.00000  30.00000
Angles:   90.00000  90.00000  90.00000
Rectangular boundary conditions



Property measurement settings
===============================================================================




Pseudo-atoms
===============================================================================

  0 - C_co2    framework-atom: false
  1 - O_co2    framework-atom: false

  0 - C_co2    mass: 12.00000, charge:  0.70000
  1 - O_co2    mass: 15.99940, charge: -0.35000

  0 - C_co2    polarizability:  0.00000
  1 - O_co2    polarizability:  0.00000

  0 - J. J. Potoff et al., AIChE J. 2001, 47, 1676–1682.
  1 - J. J. Potoff et al., AIChE J. 2001, 47, 1676–1682.

Force field status
===============================================================================

Cutoff Framework-Molecule VDW:  11.00000 [Å]
Cutoff Molecule-Molecule VDW:   11.00000 [Å]
Cutoff Coulomb:                 11.00000 [Å]

Overlap-criteria VDW:           1.000000e+05 [K]

C_co2    - C_co2    Lennard-Jones p₀/kʙ:  27.00000 [K], p₁:  2.80000 [Å]
                                  shift:   0.00000 [K], tailcorrections: true
C_co2    - O_co2    Lennard-Jones p₀/kʙ:  46.18441 [K], p₁:  2.92500 [Å]
                                  shift:   0.00000 [K], tailcorrections: true
O_co2    - O_co2    Lennard-Jones p₀/kʙ:  79.00000 [K], p₁:  3.05000 [Å]
                                  shift:   0.00000 [K], tailcorrections: true

Ewald precision: 1e-06
Ewald alpha: 0.2903408740940883
Ewald k-vectors: 9 9 9


Component definitions
===============================================================================

Component 0 [CO2]

    Type: Adsorbate

    Critical temperature:  304.1282 [K]
    Critical pressure:     7377300 [Pa]
    Acentric factor:       0.22394 [-]

    Mol-fraction:                 1 [-]
    Swappable:                   true

    Mass:                         43.9988 [-]
    Fugacity coefficient:         -nan [-]
    Bulk fluid density:           0 [-]
    Compressibility:              1 [-]
    Excess molecules:             0 [-]

    Number Of Atoms:    3
    CBMC starting bead: 0
      0: O_co2  position  0.00000 -0.00000  1.16000, charge -0.35000
      1: C_co2  position  0.00000 -0.00000  0.00000, charge  0.70000
      2: O_co2  position  0.00000 -0.00000 -1.16000, charge -0.35000
    Diagonalized inertia-vector:      43.05758528 43.05758528 0.00000000
    Translational degrees of freedom: 3
    Rotational degrees of freedom:    2
    Shape of the molecule is: 'Linear'
    Net-charge:        0.00000000 [e]

    Move probabilities:
    Translation:                   0.199203 [-]
    Random translation:            0.000000 [-]
    Rotation:                      0.199203 [-]
    Random rotation:               0.000000 [-]
    Volume change:                 0.000000 [-]
    Reinsertion (CBMC):            0.199203 [-]
    Identity change (CBMC):        0.000000 [-]
    Swap:                          0.000000 [-]
    Swap (CBMC):                   0.000000 [-]
    Swap (CFCMC):                  0.000000 [-]
    Swap (CB/CFCMC):               0.000000 [-]
    Gibbs volume:                  0.003984 [-]
    Gibbs swap (CBMC):             0.398406 [-]
    Gibbs swap (CFCMC):            0.000000 [-]
    Widom:                         0.000000 [-]
    Widom (CFCMC):                 0.000000 [-]
    Widom (CB/CFCMC):              0.000000 [-]
    Parallel tempering:            0.000000 [-]
    Hybrid MC:                     0.000000 [-]

    number of blocking-pockets: 0

    number of bonds: 0





Number of pseudo-atoms
===============================================================================

Component   0 (CO2)
-------------------------------------------------------------------------------
    index   0 (C_co2): 210 atoms
    index   1 (O_co2): 420 atoms

Total number of pseudo-atoms:
-------------------------------------------------------------------------------
    index   0 (C_co2): 210 atoms
    index   1 (O_co2): 420 atoms




Energy status Recomputed from scratch
===============================================================================

Total potential energy/kʙ       -1.041767e+05 [K]
    external field VDW/kʙ        0.000000e+00 [K]
    external field Real/kʙ       0.000000e+00 [K]
    framework-molecule VDW/kʙ    0.000000e+00 [K]
    framework-molecule Real/kʙ   0.000000e+00 [K]
    molecule-molecule VDW/kʙ    -8.045512e+04 [K]
    molecule-molecule Real/kʙ   -1.755962e+04 [K]
    Van der Waals (Tail)/kʙ     -3.937786e+03 [K]
    Ewald Fourier/kʙ             1.683660e+04 [K]
    Ewald self/kʙ               -4.224926e+06 [K]
    Ewald exclusion/kʙ           4.205866e+06 [K]
    intra VDW/kʙ                 0.000000e+00 [K]
    intra Coulombic/kʙ           0.000000e+00 [K]
    polarization/kʙ              0.000000e+00 [K]
    dU/dlambda VDW/kʙ            0.000000e+00 [K]
    dU/dlambda Real/kʙ           0.000000e+00 [K]
    dU/dlambda Ewald/kʙ          0.000000e+00 [K]





Initialization: Current cycle: 0 out of 2000
===============================================================================

Box:      30.00000   0.00000   0.00000
           0.00000  30.00000   0.00000
           0.00000   0.00000  30.00000
Lengths:  30.00000  30.00000  30.00000
Angles:   90.00000  90.00000  90.00000
Rectangular boundary conditions

net charge:   0.00000000

component   0 (CO2) lambda:  0 occupancy:  0 (0.000000)
    net charge:   0.00000000 [e]

Amount of molecules per component :
-------------------------------------------------------------------------------
Component 0 (CO2)
    molecules:         2.000000e+02 molecules
    number density:    7.407407e-03 molec/A^3
    density:           5.411979e+02 kg/m^3

Total potential energy/kʙ       -1.273711e+05 [K]
-------------------------------------------------------------------------------
    external field VDW/kʙ        0.000000e+00 [K]
    external field Real/kʙ       0.000000e+00 [K]
    framework-molecule VDW/kʙ    0.000000e+00 [K]
    framework-molecule Real/kʙ   0.000000e+00 [K]
    molecule-molecule VDW/kʙ    -9.949823e+04 [K]
    molecule-molecule Real/kʙ   -2.079118e+04 [K]
    Van der Waals (Tail)/kʙ     -3.571688e+03 [K]
    Ewald Fourier/kʙ             1.464314e+04 [K]
    Ewald self/kʙ               -4.023739e+06 [K]
    Ewald exclusion/kʙ           4.005586e+06 [K]
    intra VDW/kʙ                 0.000000e+00 [K]
    intra Coulombic/kʙ           0.000000e+00 [K]
    polarization/kʙ              0.000000e+00 [K]
    dU/dlambda VDW/kʙ            0.000000e+00 [K]
    dU/dlambda Real/kʙ           0.000000e+00 [K]
    dU/dlambda Ewald/kʙ          0.000000e+00 [K]


Initialization: Current cycle: 100 out of 2000
===============================================================================

Box:      29.03016   0.00000   0.00000
           0.00000  29.03016   0.00000
           0.00000   0.00000  29.03016
Lengths:  29.03016  29.03016  29.03016
Angles:   90.00000  90.00000  90.00000
Rectangular boundary conditions

net charge:   0.00000000

component   0 (CO2) lambda:  0 occupancy:  0 (0.000000)
    net charge:   0.00000000 [e]

Amount of molecules per component :
-------------------------------------------------------------------------------
Component 0 (CO2)
    molecules:         2.140000e+02 molecules
    number density:    8.747132e-03 molec/A^3
    density:           6.390805e+02 kg/m^3

Total potential energy/kʙ       -2.110393e+05 [K]
-------------------------------------------------------------------------------
    external field VDW/kʙ        0.000000e+00 [K]
    external field Real/kʙ       0.000000e+00 [K]
    framework-molecule VDW/kʙ    0.000000e+00 [K]
    framework-molecule Real/kʙ   0.000000e+00 [K]
    molecule-molecule VDW/kʙ    -1.555384e+05 [K]
    molecule-molecule Real/kʙ   -4.443851e+04 [K]
    Van der Waals (Tail)/kʙ     -4.512911e+03 [K]
    Ewald Fourier/kʙ             1.287428e+04 [K]
    Ewald self/kʙ               -4.305401e+06 [K]
    Ewald exclusion/kʙ           4.285977e+06 [K]
    intra VDW/kʙ                 0.000000e+00 [K]
    intra Coulombic/kʙ           0.000000e+00 [K]
    polarization/kʙ              0.000000e+00 [K]
    dU/dlambda VDW/kʙ            0.000000e+00 [K]
    dU/dlambda Real/kʙ           0.000000e+00 [K]
    dU/dlambda Ewald/kʙ          0.000000e+00 [K]


Initialization: Current cycle: 200 out of 2000
===============================================================================

Box:      28.26925   0.00000   0.00000
           0.00000  28.26925   0.00000
           0.00000   0.00000  28.26925
Lengths:  28.26925  28.26925  28.26925
Angles:   90.00000  90.00000  90.00000
Rectangular boundary conditions

net charge:   0.00000000

component   0 (CO2) lambda:  0 occupancy:  0 (0.000000)
    net charge:   0.00000000 [e]

Amount of molecules per component :
-------------------------------------------------------------------------------
Component 0 (CO2)
    molecules:         2.290000e+02 molecules
    number density:    1.013661e-02 molec/A^3
    density:           7.405978e+02 kg/m^3

Total potential energy/kʙ       -2.443950e+05 [K]
-------------------------------------------------------------------------------
    external field VDW/kʙ        0.000000e+00 [K]
    external field Real/kʙ       0.000000e+00 [K]
    framework-molecule VDW/kʙ    0.000000e+00 [K]
    framework-molecule Real/kʙ   0.000000e+00 [K]
    molecule-molecule VDW/kʙ    -1.787407e+05 [K]
    molecule-molecule Real/kʙ   -5.199318e+04 [K]
    Van der Waals (Tail)/kʙ     -5.596356e+03 [K]
    Ewald Fourier/kʙ             1.272054e+04 [K]
    Ewald self/kʙ               -4.607182e+06 [K]
    Ewald exclusion/kʙ           4.586396e+06 [K]
    intra VDW/kʙ                 0.000000e+00 [K]
    intra Coulombic/kʙ           0.000000e+00 [K]
    polarization/kʙ              0.000000e+00 [K]
    dU/dlambda VDW/kʙ            0.000000e+00 [K]
    dU/dlambda Real/kʙ           0.000000e+00 [K]
    dU/dlambda Ewald/kʙ          0.000000e+00 [K]


Initialization: Current cycle: 300 out of 2000
===============================================================================

Box:      27.75834   0.00000   0.00000
           0.00000  27.75834   0.00000
           0.00000   0.00000  27.75834
Lengths:  27.75834  27.75834  27.75834
Angles:   90.00000  90.00000  90.00000
Rectangular boundary conditions

net charge:   0.00000000

component   0 (CO2) lambda:  0 occupancy:  0 (0.000000)
    net charge:   0.00000000 [e]

Amount of molecules per component :
-------------------------------------------------------------------------------
Component 0 (CO2)
    molecules:         2.220000e+02 molecules
    number density:    1.037941e-02 molec/A^3
    density:           7.583374e+02 kg/m^3

Total potential energy/kʙ       -2.370177e+05 [K]
-------------------------------------------------------------------------------
    external field VDW/kʙ        0.000000e+00 [K]
    external field Real/kʙ       0.000000e+00 [K]
    framework-molecule VDW/kʙ    0.000000e+00 [K]
    framework-molecule Real/kʙ   0.000000e+00 [K]
    molecule-molecule VDW/kʙ    -1.711995e+05 [K]
    molecule-molecule Real/kʙ   -5.081237e+04 [K]
    Van der Waals (Tail)/kʙ     -5.555241e+03 [K]
    Ewald Fourier/kʙ             1.069928e+04 [K]
    Ewald self/kʙ               -4.466351e+06 [K]
    Ewald exclusion/kʙ           4.446201e+06 [K]
    intra VDW/kʙ                 0.000000e+00 [K]
    intra Coulombic/kʙ           0.000000e+00 [K]
    polarization/kʙ              0.000000e+00 [K]
    dU/dlambda VDW/kʙ            0.000000e+00 [K]
    dU/dlambda Real/kʙ           0.000000e+00 [K]
    dU/dlambda Ewald/kʙ          0.000000e+00 [K]


Initialization: Current cycle: 400 out of 2000
===============================================================================

Box:      27.53519   0.00000   0.00000
           0.00000  27.53519   0.00000
           0.00000   0.00000  27.53519
Lengths:  27.53519  27.53519  27.53519
Angles:   90.00000  90.00000  90.00000
Rectangular boundary conditions

net charge:   0.00000000

component   0 (CO2) lambda:  0 occupancy:  0 (0.000000)
    net charge:   0.00000000 [e]

Amount of molecules per component :
-------------------------------------------------------------------------------
Component 0 (CO2)
    molecules:         2.120000e+02 molecules
    number density:    1.015480e-02 molec/A^3
    density:           7.419273e+02 kg/m^3

Total potential energy/kʙ       -2.136873e+05 [K]
-------------------------------------------------------------------------------
    external field VDW/kʙ        0.000000e+00 [K]
    external field Real/kʙ       0.000000e+00 [K]
    framework-molecule VDW/kʙ    0.000000e+00 [K]
    framework-molecule Real/kʙ   0.000000e+00 [K]
    molecule-molecule VDW/kʙ    -1.614051e+05 [K]
    molecule-molecule Real/kʙ   -4.035462e+04 [K]
    Van der Waals (Tail)/kʙ     -5.190207e+03 [K]
    Ewald Fourier/kʙ             1.250483e+04 [K]
    Ewald self/kʙ               -4.265164e+06 [K]
    Ewald exclusion/kʙ           4.245921e+06 [K]
    intra VDW/kʙ                 0.000000e+00 [K]
    intra Coulombic/kʙ           0.000000e+00 [K]
    polarization/kʙ              0.000000e+00 [K]
    dU/dlambda VDW/kʙ            0.000000e+00 [K]
    dU/dlambda Real/kʙ           0.000000e+00 [K]
    dU/dlambda Ewald/kʙ          0.000000e+00 [K]


Initialization: Current cycle: 500 out of 2000
===============================================================================

Box:      26.42160   0.00000   0.00000
           0.00000  26.42160   0.00000
           0.00000   0.00000  26.42160
Lengths:  26.42160  26.42160  26.42160
Angles:   90.00000  90.00000  90.00000
Rectangular boundary conditions

net charge:   0.00000000

component   0 (CO2) lambda:  0 occupancy:  0 (0.000000)
    net charge:   0.00000000 [e]

Amount of molecules per component :
-------------------------------------------------------------------------------
Component 0 (CO2)
    molecules:         2.160000e+02 molecules
    number density:    1.171053e-02 molec/A^3
    density:           8.555915e+02 kg/m^3

Total potential energy/kʙ       -2.525719e+05 [K]
-------------------------------------------------------------------------------
    external field VDW/kʙ        0.000000e+00 [K]
    external field Real/kʙ       0.000000e+00 [K]
    framework-molecule VDW/kʙ    0.000000e+00 [K]
    framework-molecule Real/kʙ   0.000000e+00 [K]
    molecule-molecule VDW/kʙ    -1.843950e+05 [K]
    molecule-molecule Real/kʙ   -5.301412e+04 [K]
    Van der Waals (Tail)/kʙ     -6.098284e+03 [K]
    Ewald Fourier/kʙ             1.054089e+04 [K]
    Ewald self/kʙ               -4.345638e+06 [K]
    Ewald exclusion/kʙ           4.326033e+06 [K]
    intra VDW/kʙ                 0.000000e+00 [K]
    intra Coulombic/kʙ           0.000000e+00 [K]
    polarization/kʙ              0.000000e+00 [K]
    dU/dlambda VDW/kʙ            0.000000e+00 [K]
    dU/dlambda Real/kʙ           0.000000e+00 [K]
    dU/dlambda Ewald/kʙ          0.000000e+00 [K]


Initialization: Current cycle: 600 out of 2000
===============================================================================

Box:      26.67141   0.00000   0.00000
           0.00000  26.67141   0.00000
           0.00000   0.00000  26.67141
Lengths:  26.67141  26.67141  26.67141
Angles:   90.00000  90.00000  90.00000
Rectangular boundary conditions

net charge:   0.00000000

component   0 (CO2) lambda:  0 occupancy:  0 (0.000000)
    net charge:   0.00000000 [e]

Amount of molecules per component :
-------------------------------------------------------------------------------
Component 0 (CO2)
    molecules:         2.280000e+02 molecules
    number density:    1.201702e-02 molec/A^3
    density:           8.779838e+02 kg/m^3

Total potential energy/kʙ       -2.797042e+05 [K]
-------------------------------------------------------------------------------
    external field VDW/kʙ        0.000000e+00 [K]
    external field Real/kʙ       0.000000e+00 [K]
    framework-molecule VDW/kʙ    0.000000e+00 [K]
    framework-molecule Real/kʙ   0.000000e+00 [K]
    molecule-molecule VDW/kʙ    -2.052225e+05 [K]
    molecule-molecule Real/kʙ   -5.796402e+04 [K]
    Van der Waals (Tail)/kʙ     -6.605548e+03 [K]
    Ewald Fourier/kʙ             1.078235e+04 [K]
    Ewald self/kʙ               -4.587063e+06 [K]
    Ewald exclusion/kʙ           4.566368e+06 [K]
    intra VDW/kʙ                 0.000000e+00 [K]
    intra Coulombic/kʙ           0.000000e+00 [K]
    polarization/kʙ              0.000000e+00 [K]
    dU/dlambda VDW/kʙ            0.000000e+00 [K]
    dU/dlambda Real/kʙ           0.000000e+00 [K]
    dU/dlambda Ewald/kʙ          0.000000e+00 [K]


Initialization: Current cycle: 700 out of 2000
===============================================================================

Box:      26.86562   0.00000   0.00000
           0.00000  26.86562   0.00000
           0.00000   0.00000  26.86562
Lengths:  26.86562  26.86562  26.86562
Angles:   90.00000  90.00000  90.00000
Rectangular boundary conditions

net charge:   0.00000000

component   0 (CO2) lambda:  0 occupancy:  0 (0.000000)
    net charge:   0.00000000 [e]

Amount of molecules per component :
-------------------------------------------------------------------------------
Component 0 (CO2)
    molecules:         2.270000e+02 molecules
    number density:    1.170672e-02 molec/A^3
    density:           8.553133e+02 kg/m^3

Total potential energy/kʙ       -2.813249e+05 [K]
-------------------------------------------------------------------------------
    external field VDW/kʙ        0.000000e+00 [K]
    external field Real/kʙ       0.000000e+00 [K]
    framework-molecule VDW/kʙ    0.000000e+00 [K]
    framework-molecule Real/kʙ   0.000000e+00 [K]
    molecule-molecule VDW/kʙ    -2.032889e+05 [K]
    molecule-molecule Real/kʙ   -6.250532e+04 [K]
    Van der Waals (Tail)/kʙ     -6.406761e+03 [K]
    Ewald Fourier/kʙ             1.147985e+04 [K]
    Ewald self/kʙ               -4.566944e+06 [K]
    Ewald exclusion/kʙ           4.546340e+06 [K]
    intra VDW/kʙ                 0.000000e+00 [K]
    intra Coulombic/kʙ           0.000000e+00 [K]
    polarization/kʙ              0.000000e+00 [K]
    dU/dlambda VDW/kʙ            0.000000e+00 [K]
    dU/dlambda Real/kʙ           0.000000e+00 [K]
    dU/dlambda Ewald/kʙ          0.000000e+00 [K]


Initialization: Current cycle: 800 out of 2000
===============================================================================

Box:      26.65008   0.00000   0.00000
           0.00000  26.65008   0.00000
           0.00000   0.00000  26.65008
Lengths:  26.65008  26.65008  26.65008
Angles:   90.00000  90.00000  90.00000
Rectangular boundary conditions

net charge:   0.00000000

component   0 (CO2) lambda:  0 occupancy:  0 (0.000000)
    net charge:   0.00000000 [e]

Amount of molecules per component :
-------------------------------------------------------------------------------
Component 0 (CO2)
    molecules:         2.190000e+02 molecules
    number density:    1.157041e-02 molec/A^3
    density:           8.453538e+02 kg/m^3

Total potential energy/kʙ       -2.546443e+05 [K]
-------------------------------------------------------------------------------
    external field VDW/kʙ        0.000000e+00 [K]
    external field Real/kʙ       0.000000e+00 [K]
    framework-molecule VDW/kʙ    0.000000e+00 [K]
    framework-molecule Real/kʙ   0.000000e+00 [K]
    molecule-molecule VDW/kʙ    -1.879468e+05 [K]
    molecule-molecule Real/kʙ   -5.194981e+04 [K]
    Van der Waals (Tail)/kʙ     -6.108999e+03 [K]
    Ewald Fourier/kʙ             1.123899e+04 [K]
    Ewald self/kʙ               -4.405995e+06 [K]
    Ewald exclusion/kʙ           4.386117e+06 [K]
    intra VDW/kʙ                 0.000000e+00 [K]
    intra Coulombic/kʙ           0.000000e+00 [K]
    polarization/kʙ              0.000000e+00 [K]
    dU/dlambda VDW/kʙ            0.000000e+00 [K]
    dU/dlambda Real/kʙ           0.000000e+00 [K]
    dU/dlambda Ewald/kʙ          0.000000e+00 [K]


Initialization: Current cycle: 900 out of 2000
===============================================================================

Box:      26.28215   0.00000   0.00000
           0.00000  26.28215   0.00000
           0.00000   0.00000  26.28215
Lengths:  26.28215  26.28215  26.28215
Angles:   90.00000  90.00000  90.00000
Rectangular boundary conditions

net charge:   0.00000000

component   0 (CO2) lambda:  0 occupancy:  0 (0.000000)
    net charge:   0.00000000 [e]

Amount of molecules per component :
-------------------------------------------------------------------------------
Component 0 (CO2)
    molecules:         2.230000e+02 molecules
    number density:    1.228350e-02 molec/A^3
    density:           8.974534e+02 kg/m^3

Total potential energy/kʙ       -2.755619e+05 [K]
-------------------------------------------------------------------------------
    external field VDW/kʙ        0.000000e+00 [K]
    external field Real/kʙ       0.000000e+00 [K]
    framework-molecule VDW/kʙ    0.000000e+00 [K]
    framework-molecule Real/kʙ   0.000000e+00 [K]
    molecule-molecule VDW/kʙ    -2.052858e+05 [K]
    molecule-molecule Real/kʙ   -5.321949e+04 [K]
    Van der Waals (Tail)/kʙ     -6.603957e+03 [K]
    Ewald Fourier/kʙ             9.788117e+03 [K]
    Ewald self/kʙ               -4.486469e+06 [K]
    Ewald exclusion/kʙ           4.466229e+06 [K]
    intra VDW/kʙ                 0.000000e+00 [K]
    intra Coulombic/kʙ           0.000000e+00 [K]
    polarization/kʙ              0.000000e+00 [K]
    dU/dlambda VDW/kʙ            0.000000e+00 [K]
    dU/dlambda Real/kʙ           0.000000e+00 [K]
    dU/dlambda Ewald/kʙ          0.000000e+00 [K]


Initialization: Current cycle: 1000 out of 2000
===============================================================================

Box:      26.21410   0.00000   0.00000
           0.00000  26.21410   0.00000
           0.00000   0.00000  26.21410
Lengths:  26.21410  26.21410  26.21410
Angles:   90.00000  90.00000  90.00000
Rectangular boundary conditions

net charge:   0.00000000

component   0 (CO2) lambda:  0 occupancy:  0 (0.000000)
    net charge:   0.00000000 [e]

Amount of molecules per component :
-------------------------------------------------------------------------------
Component 0 (CO2)
    molecules:         2.240000e+02 molecules
    number density:    1.243492e-02 molec/A^3
    density:           9.085169e+02 kg/m^3

Total potential energy/kʙ       -2.869396e+05 [K]
-------------------------------------------------------------------------------
    external field VDW/kʙ        0.000000e+00 [K]
    external field Real/kʙ       0.000000e+00 [K]
    framework-molecule VDW/kʙ    0.000000e+00 [K]
    framework-molecule Real/kʙ   0.000000e+00 [K]
    molecule-molecule VDW/kʙ    -2.085236e+05 [K]
    molecule-molecule Real/kʙ   -6.208617e+04 [K]
    Van der Waals (Tail)/kʙ     -6.715347e+03 [K]
    Ewald Fourier/kʙ             1.071698e+04 [K]
    Ewald self/kʙ               -4.506588e+06 [K]
    Ewald exclusion/kʙ           4.486257e+06 [K]
    intra VDW/kʙ                 0.000000e+00 [K]
    intra Coulombic/kʙ           0.000000e+00 [K]
    polarization/kʙ              0.000000e+00 [K]
    dU/dlambda VDW/kʙ            0.000000e+00 [K]
    dU/dlambda Real/kʙ           0.000000e+00 [K]
    dU/dlambda Ewald/kʙ          0.000000e+00 [K]


Initialization: Current cycle: 1100 out of 2000
===============================================================================

Box:      26.37900   0.00000   0.00000
           0.00000  26.37900   0.00000
           0.00000   0.00000  26.37900
Lengths:  26.37900  26.37900  26.37900
Angles:   90.00000  90.00000  90.00000
Rectangular boundary conditions

net charge:   0.00000000

component   0 (CO2) lambda:  0 occupancy:  0 (0.000000)
    net charge:   0.00000000 [e]

Amount of molecules per component :
-------------------------------------------------------------------------------
Component 0 (CO2)
    molecules:         2.270000e+02 molecules
    number density:    1.236661e-02 molec/A^3
    density:           9.035258e+02 kg/m^3

Total potential energy/kʙ       -2.970982e+05 [K]
-------------------------------------------------------------------------------
    external field VDW/kʙ        0.000000e+00 [K]
    external field Real/kʙ       0.000000e+00 [K]
    framework-molecule VDW/kʙ    0.000000e+00 [K]
    framework-molecule Real/kʙ   0.000000e+00 [K]
    molecule-molecule VDW/kʙ    -2.137848e+05 [K]
    molecule-molecule Real/kʙ   -6.629819e+04 [K]
    Van der Waals (Tail)/kʙ     -6.767899e+03 [K]
    Ewald Fourier/kʙ             1.035647e+04 [K]
    Ewald self/kʙ               -4.566944e+06 [K]
    Ewald exclusion/kʙ           4.546340e+06 [K]
    intra VDW/kʙ                 0.000000e+00 [K]
    intra Coulombic/kʙ           0.000000e+00 [K]
    polarization/kʙ              0.000000e+00 [K]
    dU/dlambda VDW/kʙ            0.000000e+00 [K]
    dU/dlambda Real/kʙ           0.000000e+00 [K]
    dU/dlambda Ewald/kʙ          0.000000e+00 [K]


Initialization: Current cycle: 1200 out of 2000
===============================================================================

Box:      26.59688   0.00000   0.00000
           0.00000  26.59688   0.00000
           0.00000   0.00000  26.59688
Lengths:  26.59688  26.59688  26.59688
Angles:   90.00000  90.00000  90.00000
Rectangular boundary conditions

net charge:   0.00000000

component   0 (CO2) lambda:  0 occupancy:  0 (0.000000)
    net charge:   0.00000000 [e]

Amount of molecules per component :
-------------------------------------------------------------------------------
Component 0 (CO2)
    molecules:         2.160000e+02 molecules
    number density:    1.148053e-02 molec/A^3
    density:           8.387869e+02 kg/m^3

Total potential energy/kʙ       -2.532423e+05 [K]
-------------------------------------------------------------------------------
    external field VDW/kʙ        0.000000e+00 [K]
    external field Real/kʙ       0.000000e+00 [K]
    framework-molecule VDW/kʙ    0.000000e+00 [K]
    framework-molecule Real/kʙ   0.000000e+00 [K]
    molecule-molecule VDW/kʙ    -1.865850e+05 [K]
    molecule-molecule Real/kʙ   -5.158747e+04 [K]
    Van der Waals (Tail)/kʙ     -5.978509e+03 [K]
    Ewald Fourier/kʙ             1.051407e+04 [K]
    Ewald self/kʙ               -4.345638e+06 [K]
    Ewald exclusion/kʙ           4.326033e+06 [K]
    intra VDW/kʙ                 0.000000e+00 [K]
    intra Coulombic/kʙ           0.000000e+00 [K]
    polarization/kʙ              0.000000e+00 [K]
    dU/dlambda VDW/kʙ            0.000000e+00 [K]
    dU/dlambda Real/kʙ           0.000000e+00 [K]
    dU/dlambda Ewald/kʙ          0.000000e+00 [K]


Initialization: Current cycle: 1300 out of 2000
===============================================================================

Box:      26.65044   0.00000   0.00000
           0.00000  26.65044   0.00000
           0.00000   0.00000  26.65044
Lengths:  26.65044  26.65044  26.65044
Angles:   90.00000  90.00000  90.00000
Rectangular boundary conditions

net charge:   0.00000000

component   0 (CO2) lambda:  0 occupancy:  0 (0.000000)
    net charge:   0.00000000 [e]

Amount of molecules per component :
-------------------------------------------------------------------------------
Component 0 (CO2)
    molecules:         2.290000e+02 molecules
    number density:    1.209825e-02 molec/A^3
    density:           8.839188e+02 kg/m^3

Total potential energy/kʙ       -2.923164e+05 [K]
-------------------------------------------------------------------------------
    external field VDW/kʙ        0.000000e+00 [K]
    external field Real/kʙ       0.000000e+00 [K]
    framework-molecule VDW/kʙ    0.000000e+00 [K]
    framework-molecule Real/kʙ   0.000000e+00 [K]
    molecule-molecule VDW/kʙ    -2.097283e+05 [K]
    molecule-molecule Real/kʙ   -6.561795e+04 [K]
    Van der Waals (Tail)/kʙ     -6.679367e+03 [K]
    Ewald Fourier/kʙ             1.049453e+04 [K]
    Ewald self/kʙ               -4.607182e+06 [K]
    Ewald exclusion/kʙ           4.586396e+06 [K]
    intra VDW/kʙ                 0.000000e+00 [K]
    intra Coulombic/kʙ           0.000000e+00 [K]
    polarization/kʙ              0.000000e+00 [K]
    dU/dlambda VDW/kʙ            0.000000e+00 [K]
    dU/dlambda Real/kʙ           0.000000e+00 [K]
    dU/dlambda Ewald/kʙ          0.000000e+00 [K]


Initialization: Current cycle: 1400 out of 2000
===============================================================================

Box:      26.12223   0.00000   0.00000
           0.00000  26.12223   0.00000
           0.00000   0.00000  26.12223
Lengths:  26.12223  26.12223  26.12223
Angles:   90.00000  90.00000  90.00000
Rectangular boundary conditions

net charge:   0.00000000

component   0 (CO2) lambda:  0 occupancy:  0 (0.000000)
    net charge:   0.00000000 [e]

Amount of molecules per component :
-------------------------------------------------------------------------------
Component 0 (CO2)
    molecules:         2.180000e+02 molecules
    number density:    1.222997e-02 molec/A^3
    density:           8.935428e+02 kg/m^3

Total potential energy/kʙ       -2.659931e+05 [K]
-------------------------------------------------------------------------------
    external field VDW/kʙ        0.000000e+00 [K]
    external field Real/kʙ       0.000000e+00 [K]
    framework-molecule VDW/kʙ    0.000000e+00 [K]
    framework-molecule Real/kʙ   0.000000e+00 [K]
    molecule-molecule VDW/kʙ    -2.026398e+05 [K]
    molecule-molecule Real/kʙ   -4.793192e+04 [K]
    Van der Waals (Tail)/kʙ     -6.427755e+03 [K]
    Ewald Fourier/kʙ             1.079324e+04 [K]
    Ewald self/kʙ               -4.385876e+06 [K]
    Ewald exclusion/kʙ           4.366089e+06 [K]
    intra VDW/kʙ                 0.000000e+00 [K]
    intra Coulombic/kʙ           0.000000e+00 [K]
    polarization/kʙ              0.000000e+00 [K]
    dU/dlambda VDW/kʙ            0.000000e+00 [K]
    dU/dlambda Real/kʙ           0.000000e+00 [K]
    dU/dlambda Ewald/kʙ          0.000000e+00 [K]


Initialization: Current cycle: 1500 out of 2000
===============================================================================

Box:      25.78619   0.00000   0.00000
           0.00000  25.78619   0.00000
           0.00000   0.00000  25.78619
Lengths:  25.78619  25.78619  25.78619
Angles:   90.00000  90.00000  90.00000
Rectangular boundary conditions

net charge:   0.00000000

component   0 (CO2) lambda:  0 occupancy:  0 (0.000000)
    net charge:   0.00000000 [e]

Amount of molecules per component :
-------------------------------------------------------------------------------
Component 0 (CO2)
    molecules:         2.260000e+02 molecules
    number density:    1.318095e-02 molec/A^3
    density:           9.630231e+02 kg/m^3

Total potential energy/kʙ       -3.158333e+05 [K]
-------------------------------------------------------------------------------
    external field VDW/kʙ        0.000000e+00 [K]
    external field Real/kʙ       0.000000e+00 [K]
    framework-molecule VDW/kʙ    0.000000e+00 [K]
    framework-molecule Real/kʙ   0.000000e+00 [K]
    molecule-molecule VDW/kʙ    -2.301659e+05 [K]
    molecule-molecule Real/kʙ   -6.732279e+04 [K]
    Van der Waals (Tail)/kʙ     -7.181788e+03 [K]
    Ewald Fourier/kʙ             9.350168e+03 [K]
    Ewald self/kʙ               -4.546825e+06 [K]
    Ewald exclusion/kʙ           4.526312e+06 [K]
    intra VDW/kʙ                 0.000000e+00 [K]
    intra Coulombic/kʙ           0.000000e+00 [K]
    polarization/kʙ              0.000000e+00 [K]
    dU/dlambda VDW/kʙ            0.000000e+00 [K]
    dU/dlambda Real/kʙ           0.000000e+00 [K]
    dU/dlambda Ewald/kʙ          0.000000e+00 [K]


Initialization: Current cycle: 1600 out of 2000
===============================================================================

Box:      25.38894   0.00000   0.00000
           0.00000  25.38894   0.00000
           0.00000   0.00000  25.38894
Lengths:  25.38894  25.38894  25.38894
Angles:   90.00000  90.00000  90.00000
Rectangular boundary conditions

net charge:   0.00000000

component   0 (CO2) lambda:  0 occupancy:  0 (0.000000)
    net charge:   0.00000000 [e]

Amount of molecules per component :
-------------------------------------------------------------------------------
Component 0 (CO2)
    molecules:         2.190000e+02 molecules
    number density:    1.338167e-02 molec/A^3
    density:           9.776880e+02 kg/m^3

Total potential energy/kʙ       -3.022776e+05 [K]
-------------------------------------------------------------------------------
    external field VDW/kʙ        0.000000e+00 [K]
    external field Real/kʙ       0.000000e+00 [K]
    framework-molecule VDW/kʙ    0.000000e+00 [K]
    framework-molecule Real/kʙ   0.000000e+00 [K]
    molecule-molecule VDW/kʙ    -2.198188e+05 [K]
    molecule-molecule Real/kʙ   -6.522809e+04 [K]
    Van der Waals (Tail)/kʙ     -7.065320e+03 [K]
    Ewald Fourier/kʙ             9.712238e+03 [K]
    Ewald self/kʙ               -4.405995e+06 [K]
    Ewald exclusion/kʙ           4.386117e+06 [K]
    intra VDW/kʙ                 0.000000e+00 [K]
    intra Coulombic/kʙ           0.000000e+00 [K]
    polarization/kʙ              0.000000e+00 [K]
    dU/dlambda VDW/kʙ            0.000000e+00 [K]
    dU/dlambda Real/kʙ           0.000000e+00 [K]
    dU/dlambda Ewald/kʙ          0.000000e+00 [K]


Initialization: Current cycle: 1700 out of 2000
===============================================================================

Box:      24.79409   0.00000   0.00000
           0.00000  24.79409   0.00000
           0.00000   0.00000  24.79409
Lengths:  24.79409  24.79409  24.79409
Angles:   90.00000  90.00000  90.00000
Rectangular boundary conditions

net charge:   0.00000000

component   0 (CO2) lambda:  0 occupancy:  0 (0.000000)
    net charge:   0.00000000 [e]

Amount of molecules per component :
-------------------------------------------------------------------------------
Component 0 (CO2)
    molecules:         1.990000e+02 molecules
    number density:    1.305595e-02 molec/A^3
    density:           9.538902e+02 kg/m^3

Total potential energy/kʙ       -2.622863e+05 [K]
-------------------------------------------------------------------------------
    external field VDW/kʙ        0.000000e+00 [K]
    external field Real/kʙ       0.000000e+00 [K]
    framework-molecule VDW/kʙ    0.000000e+00 [K]
    framework-molecule Real/kʙ   0.000000e+00 [K]
    molecule-molecule VDW/kʙ    -1.936110e+05 [K]
    molecule-molecule Real/kʙ   -5.345678e+04 [K]
    Van der Waals (Tail)/kʙ     -6.263815e+03 [K]
    Ewald Fourier/kʙ             9.107606e+03 [K]
    Ewald self/kʙ               -4.003621e+06 [K]
    Ewald exclusion/kʙ           3.985558e+06 [K]
    intra VDW/kʙ                 0.000000e+00 [K]
    intra Coulombic/kʙ           0.000000e+00 [K]
    polarization/kʙ              0.000000e+00 [K]
    dU/dlambda VDW/kʙ            0.000000e+00 [K]
    dU/dlambda Real/kʙ           0.000000e+00 [K]
    dU/dlambda Ewald/kʙ          0.000000e+00 [K]


Initialization: Current cycle: 1800 out of 2000
===============================================================================

Box:      24.44507   0.00000   0.00000
           0.00000  24.44507   0.00000
           0.00000   0.00000  24.44507
Lengths:  24.44507  24.44507  24.44507
Angles:   90.00000  90.00000  90.00000
Rectangular boundary conditions

net charge:   0.00000000

component   0 (CO2) lambda:  0 occupancy:  0 (0.000000)
    net charge:   0.00000000 [e]

Amount of molecules per component :
-------------------------------------------------------------------------------
Component 0 (CO2)
    molecules:         2.000000e+02 molecules
    number density:    1.369167e-02 molec/A^3
    density:           1.000337e+03 kg/m^3

Total potential energy/kʙ       -2.777700e+05 [K]
-------------------------------------------------------------------------------
    external field VDW/kʙ        0.000000e+00 [K]
    external field Real/kʙ       0.000000e+00 [K]
    framework-molecule VDW/kʙ    0.000000e+00 [K]
    framework-molecule Real/kʙ   0.000000e+00 [K]
    molecule-molecule VDW/kʙ    -2.098204e+05 [K]
    molecule-molecule Real/kʙ   -5.164446e+04 [K]
    Van der Waals (Tail)/kʙ     -6.601818e+03 [K]
    Ewald Fourier/kʙ             8.449833e+03 [K]
    Ewald self/kʙ               -4.023739e+06 [K]
    Ewald exclusion/kʙ           4.005586e+06 [K]
    intra VDW/kʙ                 0.000000e+00 [K]
    intra Coulombic/kʙ           0.000000e+00 [K]
    polarization/kʙ              0.000000e+00 [K]
    dU/dlambda VDW/kʙ            0.000000e+00 [K]
    dU/dlambda Real/kʙ           0.000000e+00 [K]
    dU/dlambda Ewald/kʙ          0.000000e+00 [K]


Initialization: Current cycle: 1900 out of 2000
===============================================================================

Box:      24.89625   0.00000   0.00000
           0.00000  24.89625   0.00000
           0.00000   0.00000  24.89625
Lengths:  24.89625  24.89625  24.89625
Angles:   90.00000  90.00000  90.00000
Rectangular boundary conditions

net charge:   0.00000000

component   0 (CO2) lambda:  0 occupancy:  0 (0.000000)
    net charge:   0.00000000 [e]

Amount of molecules per component :
-------------------------------------------------------------------------------
Component 0 (CO2)
    molecules:         2.120000e+02 molecules
    number density:    1.373833e-02 molec/A^3
    density:           1.003746e+03 kg/m^3

Total potential energy/kʙ       -3.057194e+05 [K]
-------------------------------------------------------------------------------
    external field VDW/kʙ        0.000000e+00 [K]
    external field Real/kʙ       0.000000e+00 [K]
    framework-molecule VDW/kʙ    0.000000e+00 [K]
    framework-molecule Real/kʙ   0.000000e+00 [K]
    molecule-molecule VDW/kʙ    -2.205561e+05 [K]
    molecule-molecule Real/kʙ   -6.733163e+04 [K]
    Van der Waals (Tail)/kʙ     -7.021780e+03 [K]
    Ewald Fourier/kʙ             8.432433e+03 [K]
    Ewald self/kʙ               -4.265164e+06 [K]
    Ewald exclusion/kʙ           4.245921e+06 [K]
    intra VDW/kʙ                 0.000000e+00 [K]
    intra Coulombic/kʙ           0.000000e+00 [K]
    polarization/kʙ              0.000000e+00 [K]
    dU/dlambda VDW/kʙ            0.000000e+00 [K]
    dU/dlambda Real/kʙ           0.000000e+00 [K]
    dU/dlambda Ewald/kʙ          0.000000e+00 [K]


Current cycle: 0 out of 6000
===============================================================================

Box:      24.97452   0.00000   0.00000  Average:  24.97452   0.00000   0.00000
           0.00000  24.97452   0.00000             0.00000  24.97452   0.00000
           0.00000   0.00000  24.97452             0.00000   0.00000  24.97452
Lengths:  24.97452  24.97452  24.97452  Average:  24.97452  24.97452  24.97452
Angles:   90.00000  90.00000  90.00000  Average:  90.00000  90.00000  90.00000
Rectangular boundary conditions

net charge:   0.00000000

component 0 (CO2) lambda:  0 occupancy:  0 (0.000000)
    net charge:   0.00000000 [e]

Amount of molecules per component :
-------------------------------------------------------------------------------
Component 0 (CO2)
    molecules:      2.030000e+02 molecules  (2.030000e+02 +/- 0.000000e+00)
    number density: 1.303181e-02 molec./A^3 (1.303181e-02 +/- 0.000000e+00)
    density:        9.521260e+02 kg/m^3     (9.521260e+02 +/- 0.000000e+00)

Average pressure tensor: 
-------------------------------------------------------------------------------
 4.8579e+02  0.0000e+00  0.0000e+00 +/- 0.0000e+00 0.0000e+00 0.0000e+00 [bar]
 0.0000e+00  4.8579e+02  0.0000e+00 +/- 0.0000e+00 0.0000e+00 0.0000e+00 [bar]
 0.0000e+00  0.0000e+00  4.8579e+02 +/- 0.0000e+00 0.0000e+00 0.0000e+00 [bar]
Ideal-gas pressure:   4.857939e+02 +/ 0.000000e+00 [bar]
Excess pressure:      0.000000e+00 +/ 0.000000e+00 [bar]
Pressure:             4.857939e+02 +/ 0.000000e+00 [bar]

Total potential energy/kʙ  -2.738464e+05 (-2.738464e+05 +/- 0.000000e+00) [K]
-------------------------------------------------------------------------------
ExternalField-molecule
    Van der Waals/kʙ        0.000000e+00 ( 0.000000e+00 +/- 0.000000e+00) [K]
Framework-molecule
    Van der Waals/kʙ        0.000000e+00 ( 0.000000e+00 +/- 0.000000e+00) [K]
    Van der Waals (Tail)/kʙ 0.000000e+00 ( 0.000000e+00 +/- 0.000000e+00) [K]
    Coulombic Real/kʙ       0.000000e+00 ( 0.000000e+00 +/- 0.000000e+00) [K]
    Coulombic Fourier/kʙ    0.000000e+00 ( 0.000000e+00 +/- 0.000000e+00) [K]
Molecule-molecule
    Van der Waals/kʙ       -2.018620e+05 (-2.018620e+05 +/- 0.000000e+00) [K]
    Van der Waals (Tail)/kʙ-6.377903e+03 (-6.377903e+03 +/- 0.000000e+00) [K]
    Coulombic Real/kʙ      -5.664888e+04 (-5.664888e+04 +/- 0.000000e+00) [K]
    Coulombic Fourier/kʙ   -8.957627e+03 (-8.957627e+03 +/- 0.000000e+00) [K]
    Molecule Intra/kʙ       0.000000e+00 ( 0.000000e+00 +/- 0.000000e+00) [K]

Current cycle: 100 out of 6000
===============================================================================

Box:      25.13403   0.00000   0.00000  Average:  24.98864   0.00000   0.00000
           0.00000  25.13403   0.00000             0.00000  24.98864   0.00000
           0.00000   0.00000  25.13403             0.00000   0.00000  24.98864
Lengths:  25.13403  25.13403  25.13403  Average:  24.98864  24.98864  24.98864
Angles:   90.00000  90.00000  90.00000  Average:  90.00000  90.00000  90.00000
Rectangular boundary conditions

net charge:   0.00000000

component 0 (CO2) lambda:  0 occupancy:  0 (0.000000)
    net charge:   0.00000000 [e]

Amount of molecules per component :
-------------------------------------------------------------------------------
Component 0 (CO2)
    molecules:      2.020000e+02 molecules  (2.084158e+02 +/- 0.000000e+00)
    number density: 1.272228e-02 molec./A^3 (1.335846e-02 +/- 0.000000e+00)
    density:        9.295118e+02 kg/m^3     (9.759923e+02 +/- 0.000000e+00)

Average pressure tensor: 
-------------------------------------------------------------------------------
 5.8042e+01  4.6619e+01  1.6593e+02 +/- 0.0000e+00 0.0000e+00 0.0000e+00 [bar]
 4.6619e+01 -1.1402e+01 -4.9977e+01 +/- 0.0000e+00 0.0000e+00 0.0000e+00 [bar]
 1.6593e+02 -4.9977e+01 -1.3620e+02 +/- 0.0000e+00 0.0000e+00 0.0000e+00 [bar]
Ideal-gas pressure:   4.979709e+02 +/ 0.000000e+00 [bar]
Excess pressure:     -5.278253e+02 +/ 0.000000e+00 [bar]
Pressure:            -2.985439e+01 +/ 0.000000e+00 [bar]

Total potential energy/kʙ  -2.661981e+05 (-2.896140e+05 +/- 0.000000e+00) [K]
-------------------------------------------------------------------------------
ExternalField-molecule
    Van der Waals/kʙ        0.000000e+00 ( 0.000000e+00 +/- 0.000000e+00) [K]
Framework-molecule
    Van der Waals/kʙ        0.000000e+00 ( 0.000000e+00 +/- 0.000000e+00) [K]
    Van der Waals (Tail)/kʙ 0.000000e+00 ( 0.000000e+00 +/- 0.000000e+00) [K]
    Coulombic Real/kʙ       0.000000e+00 ( 0.000000e+00 +/- 0.000000e+00) [K]
    Coulombic Fourier/kʙ    0.000000e+00 ( 0.000000e+00 +/- 0.000000e+00) [K]
Molecule-molecule
    Van der Waals/kʙ       -1.921389e+05 (-2.103967e+05 +/- 0.000000e+00) [K]
    Van der Waals (Tail)/kʙ-6.195748e+03 (-6.691274e+03 +/- 0.000000e+00) [K]
    Coulombic Real/kʙ      -5.833100e+04 (-6.256292e+04 +/- 0.000000e+00) [K]
    Coulombic Fourier/kʙ   -9.532447e+03 (-9.963136e+03 +/- 0.000000e+00) [K]
    Molecule Intra/kʙ       0.000000e+00 ( 0.000000e+00 +/- 0.000000e+00) [K]

Current cycle: 200 out of 6000
===============================================================================

Box:      25.18257   0.00000   0.00000  Average:  25.22898   0.00000   0.00000
           0.00000  25.18257   0.00000             0.00000  25.22898   0.00000
           0.00000   0.00000  25.18257             0.00000   0.00000  25.22898
Lengths:  25.18257  25.18257  25.18257  Average:  25.22898  25.22898  25.22898
Angles:   90.00000  90.00000  90.00000  Average:  90.00000  90.00000  90.00000
Rectangular boundary conditions

net charge:   0.00000000

component 0 (CO2) lambda:  0 occupancy:  0 (0.000000)
    net charge:   0.00000000 [e]

Amount of molecules per component :
-------------------------------------------------------------------------------
Component 0 (CO2)
    molecules:      2.130000e+02 molecules  (2.116219e+02 +/- 0.000000e+00)
    number density: 1.333765e-02 molec./A^3 (1.318351e-02 +/- 0.000000e+00)
    density:        9.744714e+02 kg/m^3     (9.632100e+02 +/- 0.000000e+00)

Average pressure tensor: 
-------------------------------------------------------------------------------
 7.7837e+01  1.0277e+02  1.2107e+02 +/- 0.0000e+00 0.0000e+00 0.0000e+00 [bar]
 1.0277e+02  2.2567e+01 -5.3484e+01 +/- 0.0000e+00 0.0000e+00 0.0000e+00 [bar]
 1.2107e+02 -5.3484e+01 -7.8244e+01 +/- 0.0000e+00 0.0000e+00 0.0000e+00 [bar]
Ideal-gas pressure:   4.914492e+02 +/ 0.000000e+00 [bar]
Excess pressure:     -4.840627e+02 +/ 0.000000e+00 [bar]
Pressure:             7.386424e+00 +/ 0.000000e+00 [bar]

Total potential energy/kʙ  -2.931629e+05 (-2.875966e+05 +/- 0.000000e+00) [K]
-------------------------------------------------------------------------------
ExternalField-molecule
    Van der Waals/kʙ        0.000000e+00 ( 0.000000e+00 +/- 0.000000e+00) [K]
Framework-molecule
    Van der Waals/kʙ        0.000000e+00 ( 0.000000e+00 +/- 0.000000e+00) [K]
    Van der Waals (Tail)/kʙ 0.000000e+00 ( 0.000000e+00 +/- 0.000000e+00) [K]
    Coulombic Real/kʙ       0.000000e+00 ( 0.000000e+00 +/- 0.000000e+00) [K]
    Coulombic Fourier/kʙ    0.000000e+00 ( 0.000000e+00 +/- 0.000000e+00) [K]
Molecule-molecule
    Van der Waals/kʙ       -2.171172e+05 (-2.100697e+05 +/- 0.000000e+00) [K]
    Van der Waals (Tail)/kʙ-6.849142e+03 (-6.684760e+03 +/- 0.000000e+00) [K]
    Coulombic Real/kʙ      -5.948569e+04 (-6.107983e+04 +/- 0.000000e+00) [K]
    Coulombic Fourier/kʙ   -9.710889e+03 (-9.762380e+03 +/- 0.000000e+00) [K]
    Molecule Intra/kʙ       0.000000e+00 ( 0.000000e+00 +/- 0.000000e+00) [K]

Current cycle: 300 out of 6000
===============================================================================

Box:      25.45901   0.00000   0.00000  Average:  25.25818   0.00000   0.00000
           0.00000  25.45901   0.00000             0.00000  25.25818   0.00000
           0.00000   0.00000  25.45901             0.00000   0.00000  25.25818
Lengths:  25.45901  25.45901  25.45901  Average:  25.25818  25.25818  25.25818
Angles:   90.00000  90.00000  90.00000  Average:  90.00000  90.00000  90.00000
Rectangular boundary conditions

net charge:   0.00000000

component 0 (CO2) lambda:  0 occupancy:  0 (0.000000)
    net charge:   0.00000000 [e]

Amount of molecules per component :
-------------------------------------------------------------------------------
Component 0 (CO2)
    molecules:      2.140000e+02 molecules  (2.124850e+02 +/- 0.000000e+00)
    number density: 1.296848e-02 molec./A^3 (1.319114e-02 +/- 0.000000e+00)
    density:        9.474993e+02 kg/m^3     (9.637669e+02 +/- 0.000000e+00)

Average pressure tensor: 
-------------------------------------------------------------------------------
 4.3596e+01  6.6522e+01  3.9605e+01 +/- 0.0000e+00 0.0000e+00 0.0000e+00 [bar]
 6.6522e+01 -2.2942e+01  9.7935e+00 +/- 0.0000e+00 0.0000e+00 0.0000e+00 [bar]
 3.9605e+01  9.7935e+00 -7.7449e+01 +/- 0.0000e+00 0.0000e+00 0.0000e+00 [bar]
Ideal-gas pressure:   4.917333e+02 +/ 0.000000e+00 [bar]
Excess pressure:     -5.106647e+02 +/ 0.000000e+00 [bar]
Pressure:            -1.893137e+01 +/ 0.000000e+00 [bar]

Total potential energy/kʙ  -2.796235e+05 (-2.891475e+05 +/- 0.000000e+00) [K]
-------------------------------------------------------------------------------
ExternalField-molecule
    Van der Waals/kʙ        0.000000e+00 ( 0.000000e+00 +/- 0.000000e+00) [K]
Framework-molecule
    Van der Waals/kʙ        0.000000e+00 ( 0.000000e+00 +/- 0.000000e+00) [K]
    Van der Waals (Tail)/kʙ 0.000000e+00 ( 0.000000e+00 +/- 0.000000e+00) [K]
    Coulombic Real/kʙ       0.000000e+00 ( 0.000000e+00 +/- 0.000000e+00) [K]
    Coulombic Fourier/kʙ    0.000000e+00 ( 0.000000e+00 +/- 0.000000e+00) [K]
Molecule-molecule
    Van der Waals/kʙ       -2.070923e+05 (-2.112538e+05 +/- 0.000000e+00) [K]
    Van der Waals (Tail)/kʙ-6.690832e+03 (-6.715872e+03 +/- 0.000000e+00) [K]
    Coulombic Real/kʙ      -5.606858e+04 (-6.134914e+04 +/- 0.000000e+00) [K]
    Coulombic Fourier/kʙ   -9.771830e+03 (-9.828598e+03 +/- 0.000000e+00) [K]
    Molecule Intra/kʙ       0.000000e+00 ( 0.000000e+00 +/- 0.000000e+00) [K]

Current cycle: 400 out of 6000
===============================================================================

Box:      25.52429   0.00000   0.00000  Average:  25.36563   0.00000   0.00000
           0.00000  25.52429   0.00000             0.00000  25.36563   0.00000
           0.00000   0.00000  25.52429             0.00000   0.00000  25.36563
Lengths:  25.52429  25.52429  25.52429  Average:  25.36563  25.36563  25.36563
Angles:   90.00000  90.00000  90.00000  Average:  90.00000  90.00000  90.00000
Rectangular boundary conditions

net charge:   0.00000000

component 0 (CO2) lambda:  0 occupancy:  0 (0.000000)
    net charge:   0.00000000 [e]

Amount of molecules per component :
-------------------------------------------------------------------------------
Component 0 (CO2)
    molecules:      2.110000e+02 molecules  (2.136833e+02 +/- 0.000000e+00)
    number density: 1.268883e-02 molec./A^3 (1.309769e-02 +/- 0.000000e+00)
    density:        9.270675e+02 kg/m^3     (9.569394e+02 +/- 0.000000e+00)

Average pressure tensor: 
-------------------------------------------------------------------------------
 3.5570e+01  2.1215e+01 -1.1870e+01 +/- 0.0000e+00 0.0000e+00 0.0000e+00 [bar]
 2.1215e+01 -5.3819e+01  2.0828e+01 +/- 0.0000e+00 0.0000e+00 0.0000e+00 [bar]
-1.1870e+01  2.0828e+01 -4.9053e+01 +/- 0.0000e+00 0.0000e+00 0.0000e+00 [bar]
Ideal-gas pressure:   4.882498e+02 +/ 0.000000e+00 [bar]
Excess pressure:     -5.106837e+02 +/ 0.000000e+00 [bar]
Pressure:            -2.243387e+01 +/ 0.000000e+00 [bar]

Total potential energy/kʙ  -2.713195e+05 (-2.887666e+05 +/- 0.000000e+00) [K]
-------------------------------------------------------------------------------
ExternalField-molecule
    Van der Waals/kʙ        0.000000e+00 ( 0.000000e+00 +/- 0.000000e+00) [K]
Framework-molecule
    Van der Waals/kʙ        0.000000e+00 ( 0.000000e+00 +/- 0.000000e+00) [K]
    Van der Waals (Tail)/kʙ 0.000000e+00 ( 0.000000e+00 +/- 0.000000e+00) [K]
    Coulombic Real/kʙ       0.000000e+00 ( 0.000000e+00 +/- 0.000000e+00) [K]
    Coulombic Fourier/kʙ    0.000000e+00 ( 0.000000e+00 +/- 0.000000e+00) [K]
Molecule-molecule
    Van der Waals/kʙ       -1.975658e+05 (-2.109769e+05 +/- 0.000000e+00) [K]
    Van der Waals (Tail)/kʙ-6.454777e+03 (-6.713980e+03 +/- 0.000000e+00) [K]
    Coulombic Real/kʙ      -5.859167e+04 (-6.122451e+04 +/- 0.000000e+00) [K]
    Coulombic Fourier/kʙ   -8.707222e+03 (-9.851205e+03 +/- 0.000000e+00) [K]
    Molecule Intra/kʙ       0.000000e+00 ( 0.000000e+00 +/- 0.000000e+00) [K]

Current cycle: 500 out of 6000
===============================================================================

Box:      24.92651   0.00000   0.00000  Average:  25.35134   0.00000   0.00000
           0.00000  24.92651   0.00000             0.00000  25.35134   0.00000
           0.00000   0.00000  24.92651             0.00000   0.00000  25.35134
Lengths:  24.92651  24.92651  24.92651  Average:  25.35134  25.35134  25.35134
Angles:   90.00000  90.00000  90.00000  Average:  90.00000  90.00000  90.00000
Rectangular boundary conditions

net charge:   0.00000000

component 0 (CO2) lambda:  0 occupancy:  0 (0.000000)
    net charge:   0.00000000 [e]

Amount of molecules per component :
-------------------------------------------------------------------------------
Component 0 (CO2)
    molecules:      2.060000e+02 molecules  (2.133733e+02 +/- 0.000000e+00)
    number density: 1.330095e-02 molec./A^3 (1.310056e-02 +/- 0.000000e+00)
    density:        9.717900e+02 kg/m^3     (9.571495e+02 +/- 0.000000e+00)

Average pressure tensor: 
-------------------------------------------------------------------------------
 3.4658e+01  1.1183e+01 -2.2401e+01 +/- 0.0000e+00 0.0000e+00 0.0000e+00 [bar]
 1.1183e+01 -6.9568e+01  1.8816e+01 +/- 0.0000e+00 0.0000e+00 0.0000e+00 [bar]
-2.2401e+01  1.8816e+01 -6.4084e+01 +/- 0.0000e+00 0.0000e+00 0.0000e+00 [bar]
Ideal-gas pressure:   4.883570e+02 +/ 0.000000e+00 [bar]
Excess pressure:     -5.213549e+02 +/ 0.000000e+00 [bar]
Pressure:            -3.299787e+01 +/ 0.000000e+00 [bar]

Total potential energy/kʙ  -2.792653e+05 (-2.878675e+05 +/- 0.000000e+00) [K]
-------------------------------------------------------------------------------
ExternalField-molecule
    Van der Waals/kʙ        0.000000e+00 ( 0.000000e+00 +/- 0.000000e+00) [K]
Framework-molecule
    Van der Waals/kʙ        0.000000e+00 ( 0.000000e+00 +/- 0.000000e+00) [K]
    Van der Waals (Tail)/kʙ 0.000000e+00 ( 0.000000e+00 +/- 0.000000e+00) [K]
    Coulombic Real/kʙ       0.000000e+00 ( 0.000000e+00 +/- 0.000000e+00) [K]
    Coulombic Fourier/kʙ    0.000000e+00 ( 0.000000e+00 +/- 0.000000e+00) [K]
Molecule-molecule
    Van der Waals/kʙ       -2.080729e+05 (-2.107415e+05 +/- 0.000000e+00) [K]
    Van der Waals (Tail)/kʙ-6.605826e+03 (-6.708699e+03 +/- 0.000000e+00) [K]
    Coulombic Real/kʙ      -5.574804e+04 (-6.073052e+04 +/- 0.000000e+00) [K]
    Coulombic Fourier/kʙ   -8.838472e+03 (-9.686775e+03 +/- 0.000000e+00) [K]
    Molecule Intra/kʙ       0.000000e+00 ( 0.000000e+00 +/- 0.000000e+00) [K]

Current cycle: 600 out of 6000
===============================================================================

Box:      25.35594   0.00000   0.00000  Average:  25.30249   0.00000   0.00000
           0.00000  25.35594   0.00000             0.00000  25.30249   0.00000
           0.00000   0.00000  25.35594             0.00000   0.00000  25.30249
Lengths:  25.35594  25.35594  25.35594  Average:  25.30249  25.30249  25.30249
Angles:   90.00000  90.00000  90.00000  Average:  90.00000  90.00000  90.00000
Rectangular boundary conditions

net charge:   0.00000000

component 0 (CO2) lambda:  0 occupancy:  0 (0.000000)
    net charge:   0.00000000 [e]

Amount of molecules per component :
-------------------------------------------------------------------------------
Component 0 (CO2)
    molecules:      2.110000e+02 molecules  (2.119933e+02 +/- 0.000000e+00)
    number density: 1.294325e-02 molec./A^3 (1.308965e-02 +/- 0.000000e+00)
    density:        9.456562e+02 kg/m^3     (9.563519e+02 +/- 0.000000e+00)

Average pressure tensor: 
-------------------------------------------------------------------------------
 5.8033e+01  2.4494e+01 -3.0954e+01 +/- 0.0000e+00 0.0000e+00 0.0000e+00 [bar]
 2.4494e+01 -9.3986e+01 -9.6555e+00 +/- 0.0000e+00 0.0000e+00 0.0000e+00 [bar]
-3.0954e+01 -9.6555e+00 -9.6764e+01 +/- 0.0000e+00 0.0000e+00 0.0000e+00 [bar]
Ideal-gas pressure:   4.879501e+02 +/ 0.000000e+00 [bar]
Excess pressure:     -5.321889e+02 +/ 0.000000e+00 [bar]
Pressure:            -4.423888e+01 +/ 0.000000e+00 [bar]

Total potential energy/kʙ  -2.817205e+05 (-2.859171e+05 +/- 0.000000e+00) [K]
-------------------------------------------------------------------------------
ExternalField-molecule
    Van der Waals/kʙ        0.000000e+00 ( 0.000000e+00 +/- 0.000000e+00) [K]
Framework-molecule
    Van der Waals/kʙ        0.000000e+00 ( 0.000000e+00 +/- 0.000000e+00) [K]
    Van der Waals (Tail)/kʙ 0.000000e+00 ( 0.000000e+00 +/- 0.000000e+00) [K]
    Coulombic Real/kʙ       0.000000e+00 ( 0.000000e+00 +/- 0.000000e+00) [K]
    Coulombic Fourier/kʙ    0.000000e+00 ( 0.000000e+00 +/- 0.000000e+00) [K]
Molecule-molecule
    Van der Waals/kʙ       -2.117661e+05 (-2.095945e+05 +/- 0.000000e+00) [K]
    Van der Waals (Tail)/kʙ-6.584203e+03 (-6.670704e+03 +/- 0.000000e+00) [K]
    Coulombic Real/kʙ      -5.365811e+04 (-6.000986e+04 +/- 0.000000e+00) [K]
    Coulombic Fourier/kʙ   -9.712045e+03 (-9.642108e+03 +/- 0.000000e+00) [K]
    Molecule Intra/kʙ       0.000000e+00 ( 0.000000e+00 +/- 0.000000e+00) [K]

Current cycle: 700 out of 6000
===============================================================================

Box:      25.13186   0.00000   0.00000  Average:  25.29847   0.00000   0.00000
           0.00000  25.13186   0.00000             0.00000  25.29847   0.00000
           0.00000   0.00000  25.13186             0.00000   0.00000  25.29847
Lengths:  25.13186  25.13186  25.13186  Average:  25.29847  25.29847  25.29847
Angles:   90.00000  90.00000  90.00000  Average:  90.00000  90.00000  90.00000
Rectangular boundary conditions

net charge:   0.00000000

component 0 (CO2) lambda:  0 occupancy:  0 (0.000000)
    net charge:   0.00000000 [e]

Amount of molecules per component :
-------------------------------------------------------------------------------
Component 0 (CO2)
    molecules:      2.080000e+02 molecules  (2.118388e+02 +/- 0.000000e+00)
    number density: 1.310357e-02 molec./A^3 (1.308617e-02 +/- 0.000000e+00)
    density:        9.573690e+02 kg/m^3     (9.560982e+02 +/- 0.000000e+00)

Average pressure tensor: 
-------------------------------------------------------------------------------
 4.4597e+01  2.0361e+01 -2.0734e+01 +/- 0.0000e+00 0.0000e+00 0.0000e+00 [bar]
 2.0361e+01 -1.0123e+02 -4.5479e+00 +/- 0.0000e+00 0.0000e+00 0.0000e+00 [bar]
-2.0734e+01 -4.5479e+00 -8.0725e+01 +/- 0.0000e+00 0.0000e+00 0.0000e+00 [bar]
Ideal-gas pressure:   4.878206e+02 +/ 0.000000e+00 [bar]
Excess pressure:     -5.336055e+02 +/ 0.000000e+00 [bar]
Pressure:            -4.578489e+01 +/ 0.000000e+00 [bar]

Total potential energy/kʙ  -2.682160e+05 (-2.859207e+05 +/- 0.000000e+00) [K]
-------------------------------------------------------------------------------
ExternalField-molecule
    Van der Waals/kʙ        0.000000e+00 ( 0.000000e+00 +/- 0.000000e+00) [K]
Framework-molecule
    Van der Waals/kʙ        0.000000e+00 ( 0.000000e+00 +/- 0.000000e+00) [K]
    Van der Waals (Tail)/kʙ 0.000000e+00 ( 0.000000e+00 +/- 0.000000e+00) [K]
    Coulombic Real/kʙ       0.000000e+00 ( 0.000000e+00 +/- 0.000000e+00) [K]
    Coulombic Fourier/kʙ    0.000000e+00 ( 0.000000e+00 +/- 0.000000e+00) [K]
Molecule-molecule
    Van der Waals/kʙ       -1.984375e+05 (-2.094504e+05 +/- 0.000000e+00) [K]
    Van der Waals (Tail)/kʙ-6.570980e+03 (-6.676039e+03 +/- 0.000000e+00) [K]
    Coulombic Real/kʙ      -5.385567e+04 (-6.010721e+04 +/- 0.000000e+00) [K]
    Coulombic Fourier/kʙ   -9.351852e+03 (-9.687071e+03 +/- 0.000000e+00) [K]
    Molecule Intra/kʙ       0.000000e+00 ( 0.000000e+00 +/- 0.000000e+00) [K]

Current cycle: 800 out of 6000
===============================================================================

Box:      25.34344   0.00000   0.00000  Average:  25.27093   0.00000   0.00000
           0.00000  25.34344   0.00000             0.00000  25.27093   0.00000
           0.00000   0.00000  25.34344             0.00000   0.00000  25.27093
Lengths:  25.34344  25.34344  25.34344  Average:  25.27093  25.27093  25.27093
Angles:   90.00000  90.00000  90.00000  Average:  90.00000  90.00000  90.00000
Rectangular boundary conditions

net charge:   0.00000000

component 0 (CO2) lambda:  0 occupancy:  0 (0.000000)
    net charge:   0.00000000 [e]

Amount of molecules per component :
-------------------------------------------------------------------------------
Component 0 (CO2)
    molecules:      2.070000e+02 molecules  (2.112697e+02 +/- 0.000000e+00)
    number density: 1.271668e-02 molec./A^3 (1.309334e-02 +/- 0.000000e+00)
    density:        9.291022e+02 kg/m^3     (9.566220e+02 +/- 0.000000e+00)

Average pressure tensor: 
-------------------------------------------------------------------------------
 4.4040e+01  8.0192e+00 -3.1075e+01 +/- 0.0000e+00 0.0000e+00 0.0000e+00 [bar]
 8.0192e+00 -5.7639e+01 -1.3018e+00 +/- 0.0000e+00 0.0000e+00 0.0000e+00 [bar]
-3.1075e+01 -1.3018e+00 -7.7512e+01 +/- 0.0000e+00 0.0000e+00 0.0000e+00 [bar]
Ideal-gas pressure:   4.880879e+02 +/ 0.000000e+00 [bar]
Excess pressure:     -5.184582e+02 +/ 0.000000e+00 [bar]
Pressure:            -3.037030e+01 +/ 0.000000e+00 [bar]

Total potential energy/kʙ  -2.660376e+05 (-2.852749e+05 +/- 0.000000e+00) [K]
-------------------------------------------------------------------------------
ExternalField-molecule
    Van der Waals/kʙ        0.000000e+00 ( 0.000000e+00 +/- 0.000000e+00) [K]
Framework-molecule
    Van der Waals/kʙ        0.000000e+00 ( 0.000000e+00 +/- 0.000000e+00) [K]
    Van der Waals (Tail)/kʙ 0.000000e+00 ( 0.000000e+00 +/- 0.000000e+00) [K]
    Coulombic Real/kʙ       0.000000e+00 ( 0.000000e+00 +/- 0.000000e+00) [K]
    Coulombic Fourier/kʙ    0.000000e+00 ( 0.000000e+00 +/- 0.000000e+00) [K]
Molecule-molecule
    Van der Waals/kʙ       -1.950224e+05 (-2.091044e+05 +/- 0.000000e+00) [K]
    Van der Waals (Tail)/kʙ-6.346310e+03 (-6.672561e+03 +/- 0.000000e+00) [K]
    Coulombic Real/kʙ      -5.495953e+04 (-5.978144e+04 +/- 0.000000e+00) [K]
    Coulombic Fourier/kʙ   -9.709304e+03 (-9.716586e+03 +/- 0.000000e+00) [K]
    Molecule Intra/kʙ       0.000000e+00 ( 0.000000e+00 +/- 0.000000e+00) [K]

Current cycle: 900 out of 6000
===============================================================================

Box:      25.39735   0.00000   0.00000  Average:  25.29148   0.00000   0.00000
           0.00000  25.39735   0.00000             0.00000  25.29148   0.00000
           0.00000   0.00000  25.39735             0.00000   0.00000  25.29148
Lengths:  25.39735  25.39735  25.39735  Average:  25.29148  25.29148  25.29148
Angles:   90.00000  90.00000  90.00000  Average:  90.00000  90.00000  90.00000
Rectangular boundary conditions

net charge:   0.00000000

component 0 (CO2) lambda:  0 occupancy:  0 (0.000000)
    net charge:   0.00000000 [e]

Amount of molecules per component :
-------------------------------------------------------------------------------
Component 0 (CO2)
    molecules:      2.180000e+02 molecules  (2.109678e+02 +/- 0.000000e+00)
    number density: 1.330735e-02 molec./A^3 (1.304363e-02 +/- 0.000000e+00)
    density:        9.722575e+02 kg/m^3     (9.529899e+02 +/- 0.000000e+00)

Average pressure tensor: 
-------------------------------------------------------------------------------
 2.7733e+01  2.1885e+01 -2.9059e+01 +/- 0.0000e+00 0.0000e+00 0.0000e+00 [bar]
 2.1885e+01 -4.9338e+01 -1.7033e+00 +/- 0.0000e+00 0.0000e+00 0.0000e+00 [bar]
-2.9059e+01 -1.7033e+00 -7.3405e+01 +/- 0.0000e+00 0.0000e+00 0.0000e+00 [bar]
Ideal-gas pressure:   4.862347e+02 +/ 0.000000e+00 [bar]
Excess pressure:     -5.179044e+02 +/ 0.000000e+00 [bar]
Pressure:            -3.166971e+01 +/ 0.000000e+00 [bar]

Total potential energy/kʙ  -3.004004e+05 (-2.832356e+05 +/- 0.000000e+00) [K]
-------------------------------------------------------------------------------
ExternalField-molecule
    Van der Waals/kʙ        0.000000e+00 ( 0.000000e+00 +/- 0.000000e+00) [K]
Framework-molecule
    Van der Waals/kʙ        0.000000e+00 ( 0.000000e+00 +/- 0.000000e+00) [K]
    Van der Waals (Tail)/kʙ 0.000000e+00 ( 0.000000e+00 +/- 0.000000e+00) [K]
    Coulombic Real/kʙ       0.000000e+00 ( 0.000000e+00 +/- 0.000000e+00) [K]
    Coulombic Fourier/kʙ    0.000000e+00 ( 0.000000e+00 +/- 0.000000e+00) [K]
Molecule-molecule
    Van der Waals/kʙ       -2.185655e+05 (-2.077621e+05 +/- 0.000000e+00) [K]
    Van der Waals (Tail)/kʙ-6.993994e+03 (-6.635583e+03 +/- 0.000000e+00) [K]
    Coulombic Real/kʙ      -6.440340e+04 (-5.914157e+04 +/- 0.000000e+00) [K]
    Coulombic Fourier/kʙ   -1.043758e+04 (-9.696296e+03 +/- 0.000000e+00) [K]
    Molecule Intra/kʙ       0.000000e+00 ( 0.000000e+00 +/- 0.000000e+00) [K]

Current cycle: 1000 out of 6000
===============================================================================

Box:      25.09902   0.00000   0.00000  Average:  25.26622   0.00000   0.00000
           0.00000  25.09902   0.00000             0.00000  25.26622   0.00000
           0.00000   0.00000  25.09902             0.00000   0.00000  25.26622
Lengths:  25.09902  25.09902  25.09902  Average:  25.26622  25.26622  25.26622
Angles:   90.00000  90.00000  90.00000  Average:  90.00000  90.00000  90.00000
Rectangular boundary conditions

net charge:   0.00000000

component 0 (CO2) lambda:  0 occupancy:  0 (0.000000)
    net charge:   0.00000000 [e]

Amount of molecules per component :
-------------------------------------------------------------------------------
Component 0 (CO2)
    molecules:      2.050000e+02 molecules  (2.105804e+02 +/- 0.000000e+00)
    number density: 1.296532e-02 molec./A^3 (1.305854e-02 +/- 0.000000e+00)
    density:        9.472688e+02 kg/m^3     (9.540796e+02 +/- 0.000000e+00)

Average pressure tensor: 
-------------------------------------------------------------------------------
 2.3797e+01  1.1361e+01 -1.6595e+01 +/- 0.0000e+00 0.0000e+00 0.0000e+00 [bar]
 1.1361e+01 -4.1565e+01 -2.0650e+01 +/- 0.0000e+00 0.0000e+00 0.0000e+00 [bar]
-1.6595e+01 -2.0650e+01 -7.9016e+01 +/- 0.0000e+00 0.0000e+00 0.0000e+00 [bar]
Ideal-gas pressure:   4.867907e+02 +/ 0.000000e+00 [bar]
Excess pressure:     -5.190521e+02 +/ 0.000000e+00 [bar]
Pressure:            -3.226141e+01 +/ 0.000000e+00 [bar]

Total potential energy/kʙ  -2.704560e+05 (-2.834805e+05 +/- 0.000000e+00) [K]
-------------------------------------------------------------------------------
ExternalField-molecule
    Van der Waals/kʙ        0.000000e+00 ( 0.000000e+00 +/- 0.000000e+00) [K]
Framework-molecule
    Van der Waals/kʙ        0.000000e+00 ( 0.000000e+00 +/- 0.000000e+00) [K]
    Van der Waals (Tail)/kʙ 0.000000e+00 ( 0.000000e+00 +/- 0.000000e+00) [K]
    Coulombic Real/kʙ       0.000000e+00 ( 0.000000e+00 +/- 0.000000e+00) [K]
    Coulombic Fourier/kʙ    0.000000e+00 ( 0.000000e+00 +/- 0.000000e+00) [K]
Molecule-molecule
    Van der Waals/kʙ       -2.019189e+05 (-2.078715e+05 +/- 0.000000e+00) [K]
    Van der Waals (Tail)/kʙ-6.407883e+03 (-6.639519e+03 +/- 0.000000e+00) [K]
    Coulombic Real/kʙ      -5.322468e+04 (-5.922381e+04 +/- 0.000000e+00) [K]
    Coulombic Fourier/kʙ   -8.904568e+03 (-9.745702e+03 +/- 0.000000e+00) [K]
    Molecule Intra/kʙ       0.000000e+00 ( 0.000000e+00 +/- 0.000000e+00) [K]

Current cycle: 1100 out of 6000
===============================================================================

Box:      24.94542   0.00000   0.00000  Average:  25.24481   0.00000   0.00000
           0.00000  24.94542   0.00000             0.00000  25.24481   0.00000
           0.00000   0.00000  24.94542             0.00000   0.00000  25.24481
Lengths:  24.94542  24.94542  24.94542  Average:  25.24481  25.24481  25.24481
Angles:   90.00000  90.00000  90.00000  Average:  90.00000  90.00000  90.00000
Rectangular boundary conditions

net charge:   0.00000000

component 0 (CO2) lambda:  0 occupancy:  0 (0.000000)
    net charge:   0.00000000 [e]

Amount of molecules per component :
-------------------------------------------------------------------------------
Component 0 (CO2)
    molecules:      2.050000e+02 molecules  (2.104550e+02 +/- 0.000000e+00)
    number density: 1.320630e-02 molec./A^3 (1.308421e-02 +/- 0.000000e+00)
    density:        9.648751e+02 kg/m^3     (9.559547e+02 +/- 0.000000e+00)

Average pressure tensor: 
-------------------------------------------------------------------------------
 3.7447e+01  1.4164e-01 -1.0090e+01 +/- 0.0000e+00 0.0000e+00 0.0000e+00 [bar]
 1.4164e-01 -2.8776e+01 -3.1358e+01 +/- 0.0000e+00 0.0000e+00 0.0000e+00 [bar]
-1.0090e+01 -3.1358e+01 -6.3270e+01 +/- 0.0000e+00 0.0000e+00 0.0000e+00 [bar]
Ideal-gas pressure:   4.877474e+02 +/ 0.000000e+00 [bar]
Excess pressure:     -5.059473e+02 +/ 0.000000e+00 [bar]
Pressure:            -1.819994e+01 +/ 0.000000e+00 [bar]

Total potential energy/kʙ  -2.752775e+05 (-2.837457e+05 +/- 0.000000e+00) [K]
-------------------------------------------------------------------------------
ExternalField-molecule
    Van der Waals/kʙ        0.000000e+00 ( 0.000000e+00 +/- 0.000000e+00) [K]
Framework-molecule
    Van der Waals/kʙ        0.000000e+00 ( 0.000000e+00 +/- 0.000000e+00) [K]
    Van der Waals (Tail)/kʙ 0.000000e+00 ( 0.000000e+00 +/- 0.000000e+00) [K]
    Coulombic Real/kʙ       0.000000e+00 ( 0.000000e+00 +/- 0.000000e+00) [K]
    Coulombic Fourier/kʙ    0.000000e+00 ( 0.000000e+00 +/- 0.000000e+00) [K]
Molecule-molecule
    Van der Waals/kʙ       -2.008669e+05 (-2.080938e+05 +/- 0.000000e+00) [K]
    Van der Waals (Tail)/kʙ-6.526982e+03 (-6.649086e+03 +/- 0.000000e+00) [K]
    Coulombic Real/kʙ      -5.778221e+04 (-5.924224e+04 +/- 0.000000e+00) [K]
    Coulombic Fourier/kʙ   -1.010141e+04 (-9.760632e+03 +/- 0.000000e+00) [K]
    Molecule Intra/kʙ       0.000000e+00 ( 0.000000e+00 +/- 0.000000e+00) [K]

Current cycle: 1200 out of 6000
===============================================================================

Box:      24.73333   0.00000   0.00000  Average:  25.22210   0.00000   0.00000
           0.00000  24.73333   0.00000             0.00000  25.22210   0.00000
           0.00000   0.00000  24.73333             0.00000   0.00000  25.22210
Lengths:  24.73333  24.73333  24.73333  Average:  25.22210  25.22210  25.22210
Angles:   90.00000  90.00000  90.00000  Average:  90.00000  90.00000  90.00000
Rectangular boundary conditions

net charge:   0.00000000

component 0 (CO2) lambda:  0 occupancy:  0 (0.000000)
    net charge:   0.00000000 [e]

Amount of molecules per component :
-------------------------------------------------------------------------------
Component 0 (CO2)
    molecules:      2.100000e+02 molecules  (2.100966e+02 +/- 0.000000e+00)
    number density: 1.387942e-02 molec./A^3 (1.309729e-02 +/- 0.000000e+00)
    density:        1.014054e+03 kg/m^3     (9.569103e+02 +/- 0.000000e+00)

Average pressure tensor: 
-------------------------------------------------------------------------------
 4.5815e+01 -1.1669e+01  1.4960e+00 +/- 0.0000e+00 0.0000e+00 0.0000e+00 [bar]
-1.1669e+01 -4.5404e+00 -2.8991e+01 +/- 0.0000e+00 0.0000e+00 0.0000e+00 [bar]
 1.4960e+00 -2.8991e+01 -5.2815e+01 +/- 0.0000e+00 0.0000e+00 0.0000e+00 [bar]
Ideal-gas pressure:   4.882349e+02 +/ 0.000000e+00 [bar]
Excess pressure:     -4.920818e+02 +/ 0.000000e+00 [bar]
Pressure:            -3.846859e+00 +/ 0.000000e+00 [bar]

Total potential energy/kʙ  -2.922706e+05 (-2.834507e+05 +/- 0.000000e+00) [K]
-------------------------------------------------------------------------------
ExternalField-molecule
    Van der Waals/kʙ        0.000000e+00 ( 0.000000e+00 +/- 0.000000e+00) [K]
Framework-molecule
    Van der Waals/kʙ        0.000000e+00 ( 0.000000e+00 +/- 0.000000e+00) [K]
    Van der Waals (Tail)/kʙ 0.000000e+00 ( 0.000000e+00 +/- 0.000000e+00) [K]
    Coulombic Real/kʙ       0.000000e+00 ( 0.000000e+00 +/- 0.000000e+00) [K]
    Coulombic Fourier/kʙ    0.000000e+00 ( 0.000000e+00 +/- 0.000000e+00) [K]
Molecule-molecule
    Van der Waals/kʙ       -2.117620e+05 (-2.077340e+05 +/- 0.000000e+00) [K]
    Van der Waals (Tail)/kʙ-7.026966e+03 (-6.648574e+03 +/- 0.000000e+00) [K]
    Coulombic Real/kʙ      -6.338699e+04 (-5.930668e+04 +/- 0.000000e+00) [K]
    Coulombic Fourier/kʙ   -1.009458e+04 (-9.761461e+03 +/- 0.000000e+00) [K]
    Molecule Intra/kʙ       0.000000e+00 ( 0.000000e+00 +/- 0.000000e+00) [K]

Current cycle: 1300 out of 6000
===============================================================================

Box:      24.90779   0.00000   0.00000  Average:  25.19104   0.00000   0.00000
           0.00000  24.90779   0.00000             0.00000  25.19104   0.00000
           0.00000   0.00000  24.90779             0.00000   0.00000  25.19104
Lengths:  24.90779  24.90779  24.90779  Average:  25.19104  25.19104  25.19104
Angles:   90.00000  90.00000  90.00000  Average:  90.00000  90.00000  90.00000
Rectangular boundary conditions

net charge:   0.00000000

component 0 (CO2) lambda:  0 occupancy:  0 (0.000000)
    net charge:   0.00000000 [e]

Amount of molecules per component :
-------------------------------------------------------------------------------
Component 0 (CO2)
    molecules:      2.100000e+02 molecules  (2.099500e+02 +/- 0.000000e+00)
    number density: 1.358982e-02 molec./A^3 (1.313754e-02 +/- 0.000000e+00)
    density:        9.928958e+02 kg/m^3     (9.598512e+02 +/- 0.000000e+00)

Average pressure tensor: 
-------------------------------------------------------------------------------
 4.5373e+01 -2.3610e+01  1.8164e+00 +/- 0.0000e+00 0.0000e+00 0.0000e+00 [bar]
-2.3610e+01 -4.9449e+00 -3.1969e+01 +/- 0.0000e+00 0.0000e+00 0.0000e+00 [bar]
 1.8164e+00 -3.1969e+01 -5.1210e+01 +/- 0.0000e+00 0.0000e+00 0.0000e+00 [bar]
Ideal-gas pressure:   4.897354e+02 +/ 0.000000e+00 [bar]
Excess pressure:     -4.933296e+02 +/ 0.000000e+00 [bar]
Pressure:            -3.594143e+00 +/ 0.000000e+00 [bar]

Total potential energy/kʙ  -2.968317e+05 (-2.842747e+05 +/- 0.000000e+00) [K]
-------------------------------------------------------------------------------
ExternalField-molecule
    Van der Waals/kʙ        0.000000e+00 ( 0.000000e+00 +/- 0.000000e+00) [K]
Framework-molecule
    Van der Waals/kʙ        0.000000e+00 ( 0.000000e+00 +/- 0.000000e+00) [K]
    Van der Waals (Tail)/kʙ 0.000000e+00 ( 0.000000e+00 +/- 0.000000e+00) [K]
    Coulombic Real/kʙ       0.000000e+00 ( 0.000000e+00 +/- 0.000000e+00) [K]
    Coulombic Fourier/kʙ    0.000000e+00 ( 0.000000e+00 +/- 0.000000e+00) [K]
Molecule-molecule
    Van der Waals/kʙ       -2.166859e+05 (-2.082641e+05 +/- 0.000000e+00) [K]
    Van der Waals (Tail)/kʙ-6.880348e+03 (-6.662416e+03 +/- 0.000000e+00) [K]
    Coulombic Real/kʙ      -6.378413e+04 (-5.958591e+04 +/- 0.000000e+00) [K]
    Coulombic Fourier/kʙ   -9.481291e+03 (-9.762290e+03 +/- 0.000000e+00) [K]
    Molecule Intra/kʙ       0.000000e+00 ( 0.000000e+00 +/- 0.000000e+00) [K]

Current cycle: 1400 out of 6000
===============================================================================

Box:      25.39867   0.00000   0.00000  Average:  25.18092   0.00000   0.00000
           0.00000  25.39867   0.00000             0.00000  25.18092   0.00000
           0.00000   0.00000  25.39867             0.00000   0.00000  25.18092
Lengths:  25.39867  25.39867  25.39867  Average:  25.18092  25.18092  25.18092
Angles:   90.00000  90.00000  90.00000  Average:  90.00000  90.00000  90.00000
Rectangular boundary conditions

net charge:   0.00000000

component 0 (CO2) lambda:  0 occupancy:  0 (0.000000)
    net charge:   0.00000000 [e]

Amount of molecules per component :
-------------------------------------------------------------------------------
Component 0 (CO2)
    molecules:      2.150000e+02 molecules  (2.096867e+02 +/- 0.000000e+00)
    number density: 1.312216e-02 molec./A^3 (1.313686e-02 +/- 0.000000e+00)
    density:        9.587275e+02 kg/m^3     (9.598017e+02 +/- 0.000000e+00)

Average pressure tensor: 
-------------------------------------------------------------------------------
 4.7692e+01 -2.1991e+01 -5.4191e+00 +/- 0.0000e+00 0.0000e+00 0.0000e+00 [bar]
-2.1991e+01 -1.6970e+00 -3.2016e+01 +/- 0.0000e+00 0.0000e+00 0.0000e+00 [bar]
-5.4191e+00 -3.2016e+01 -5.8107e+01 +/- 0.0000e+00 0.0000e+00 0.0000e+00 [bar]
Ideal-gas pressure:   4.897102e+02 +/ 0.000000e+00 [bar]
Excess pressure:     -4.937473e+02 +/ 0.000000e+00 [bar]
Pressure:            -4.037157e+00 +/ 0.000000e+00 [bar]

Total potential energy/kʙ  -2.894086e+05 (-2.840905e+05 +/- 0.000000e+00) [K]
-------------------------------------------------------------------------------
ExternalField-molecule
    Van der Waals/kʙ        0.000000e+00 ( 0.000000e+00 +/- 0.000000e+00) [K]
Framework-molecule
    Van der Waals/kʙ        0.000000e+00 ( 0.000000e+00 +/- 0.000000e+00) [K]
    Van der Waals (Tail)/kʙ 0.000000e+00 ( 0.000000e+00 +/- 0.000000e+00) [K]
    Coulombic Real/kʙ       0.000000e+00 ( 0.000000e+00 +/- 0.000000e+00) [K]
    Coulombic Fourier/kʙ    0.000000e+00 ( 0.000000e+00 +/- 0.000000e+00) [K]
Molecule-molecule
    Van der Waals/kʙ       -2.136656e+05 (-2.080732e+05 +/- 0.000000e+00) [K]
    Van der Waals (Tail)/kʙ-6.801757e+03 (-6.655846e+03 +/- 0.000000e+00) [K]
    Coulombic Real/kʙ      -5.868349e+04 (-5.960075e+04 +/- 0.000000e+00) [K]
    Coulombic Fourier/kʙ   -1.025773e+04 (-9.760734e+03 +/- 0.000000e+00) [K]
    Molecule Intra/kʙ       0.000000e+00 ( 0.000000e+00 +/- 0.000000e+00) [K]

Current cycle: 1500 out of 6000
===============================================================================

Box:      25.40462   0.00000   0.00000  Average:  25.19999   0.00000   0.00000
           0.00000  25.40462   0.00000             0.00000  25.19999   0.00000
           0.00000   0.00000  25.40462             0.00000   0.00000  25.19999
[...]
    number density: 1.346194e-02 molec./A^3 (1.309338e-02 +/- 3.733600e-04)
    density:        9.835522e+02 kg/m^3     (9.566251e+02 +/- 2.727832e+01)

Average pressure tensor: 
-------------------------------------------------------------------------------
 2.1780e+01 -1.4045e+00 -3.0394e+00 +/- 2.4622e+01 1.3727e+01 1.7144e+01 [bar]
-1.4045e+00 -3.7189e+00 -1.1577e+01 +/- 1.3727e+01 5.5510e+01 2.7349e+01 [bar]
-3.0394e+00 -1.1577e+01  2.0905e+01 +/- 1.7144e+01 2.7349e+01 6.2586e+01 [bar]
Ideal-gas pressure:   4.880894e+02 +/ 1.391795e+01 [bar]
Excess pressure:     -4.751008e+02 +/ 3.013949e+01 [bar]
Pressure:             1.298862e+01 +/ 1.918290e+01 [bar]

Total potential energy/kʙ  -2.931639e+05 (-2.803823e+05 +/- 4.795864e+03) [K]
-------------------------------------------------------------------------------
ExternalField-molecule
    Van der Waals/kʙ        0.000000e+00 ( 0.000000e+00 +/- 0.000000e+00) [K]
Framework-molecule
    Van der Waals/kʙ        0.000000e+00 ( 0.000000e+00 +/- 0.000000e+00) [K]
    Van der Waals (Tail)/kʙ 0.000000e+00 ( 0.000000e+00 +/- 0.000000e+00) [K]
    Coulombic Real/kʙ       0.000000e+00 ( 0.000000e+00 +/- 0.000000e+00) [K]
    Coulombic Fourier/kʙ    0.000000e+00 ( 0.000000e+00 +/- 0.000000e+00) [K]
Molecule-molecule
    Van der Waals/kʙ       -2.154771e+05 (-2.052827e+05 +/- 3.557066e+03) [K]
    Van der Waals (Tail)/kʙ-6.783146e+03 (-6.568893e+03 +/- 1.159196e+02) [K]
    Coulombic Real/kʙ      -6.108761e+04 (-5.897170e+04 +/- 1.309399e+03) [K]
    Coulombic Fourier/kʙ   -9.816068e+03 (-9.558949e+03 +/- 2.191838e+02) [K]
    Molecule Intra/kʙ       0.000000e+00 ( 0.000000e+00 +/- 0.000000e+00) [K]

Current cycle: 5800 out of 6000
===============================================================================

Box:      25.37566   0.00000   0.00000  Average:  25.15144   0.00000   0.00000
           0.00000  25.37566   0.00000             0.00000  25.15144   0.00000
           0.00000   0.00000  25.37566             0.00000   0.00000  25.15144
Lengths:  25.37566  25.37566  25.37566  Average:  25.15144  25.15144  25.15144
Angles:   90.00000  90.00000  90.00000  Average:  90.00000  90.00000  90.00000
Rectangular boundary conditions

net charge:   0.00000000

component 0 (CO2) lambda:  0 occupancy:  0 (0.000000)
    net charge:   0.00000000 [e]

Amount of molecules per component :
-------------------------------------------------------------------------------
Component 0 (CO2)
    molecules:      2.120000e+02 molecules  (2.083094e+02 +/- 6.203700e+00)
    number density: 1.297429e-02 molec./A^3 (1.309958e-02 +/- 3.680925e-04)
    density:        9.479240e+02 kg/m^3     (9.570781e+02 +/- 2.689346e+01)

Average pressure tensor: 
-------------------------------------------------------------------------------
 1.9452e+01  1.8424e-01 -5.4343e-01 +/- 2.7543e+01 1.5946e+01 1.9688e+01 [bar]
 1.8424e-01 -5.6657e+00 -1.0550e+01 +/- 1.5946e+01 5.7550e+01 2.6222e+01 [bar]
-5.4343e-01 -1.0550e+01  1.9673e+01 +/- 1.9688e+01 2.6222e+01 5.9198e+01 [bar]
Ideal-gas pressure:   4.883205e+02 +/ 1.372159e+01 [bar]
Excess pressure:     -4.771675e+02 +/ 3.327369e+01 [bar]
Pressure:             1.115308e+01 +/ 2.127587e+01 [bar]

Total potential energy/kʙ  -2.919399e+05 (-2.806506e+05 +/- 4.503466e+03) [K]
-------------------------------------------------------------------------------
ExternalField-molecule
    Van der Waals/kʙ        0.000000e+00 ( 0.000000e+00 +/- 0.000000e+00) [K]
Framework-molecule
    Van der Waals/kʙ        0.000000e+00 ( 0.000000e+00 +/- 0.000000e+00) [K]
    Van der Waals (Tail)/kʙ 0.000000e+00 ( 0.000000e+00 +/- 0.000000e+00) [K]
    Coulombic Real/kʙ       0.000000e+00 ( 0.000000e+00 +/- 0.000000e+00) [K]
    Coulombic Fourier/kʙ    0.000000e+00 ( 0.000000e+00 +/- 0.000000e+00) [K]
Molecule-molecule
    Van der Waals/kʙ       -2.106861e+05 (-2.054685e+05 +/- 3.263791e+03) [K]
    Van der Waals (Tail)/kʙ-6.631272e+03 (-6.573836e+03 +/- 1.059954e+02) [K]
    Coulombic Real/kʙ      -6.532001e+04 (-5.903890e+04 +/- 1.330183e+03) [K]
    Coulombic Fourier/kʙ   -9.302558e+03 (-9.569367e+03 +/- 2.066182e+02) [K]
    Molecule Intra/kʙ       0.000000e+00 ( 0.000000e+00 +/- 0.000000e+00) [K]

Current cycle: 5900 out of 6000
===============================================================================

Box:      25.55372   0.00000   0.00000  Average:  25.16006   0.00000   0.00000
           0.00000  25.55372   0.00000             0.00000  25.16006   0.00000
           0.00000   0.00000  25.55372             0.00000   0.00000  25.16006
Lengths:  25.55372  25.55372  25.55372  Average:  25.16006  25.16006  25.16006
Angles:   90.00000  90.00000  90.00000  Average:  90.00000  90.00000  90.00000
Rectangular boundary conditions

net charge:   0.00000000

component 0 (CO2) lambda:  0 occupancy:  0 (0.000000)
    net charge:   0.00000000 [e]

Amount of molecules per component :
-------------------------------------------------------------------------------
Component 0 (CO2)
    molecules:      2.240000e+02 molecules  (2.085416e+02 +/- 5.374872e+00)
    number density: 1.342412e-02 molec./A^3 (1.310029e-02 +/- 3.514857e-04)
    density:        9.807888e+02 kg/m^3     (9.571298e+02 +/- 2.568015e+01)

Average pressure tensor: 
-------------------------------------------------------------------------------
 1.8124e+01 -8.9639e-02 -1.5891e+00 +/- 2.9142e+01 1.5101e+01 1.8057e+01 [bar]
-8.9639e-02 -9.5986e+00 -1.0651e+01 +/- 1.5101e+01 6.4100e+01 2.6201e+01 [bar]
-1.5891e+00 -1.0651e+01  1.8487e+01 +/- 1.8057e+01 2.6201e+01 5.6917e+01 [bar]
Ideal-gas pressure:   4.883469e+02 +/ 1.310253e+01 [bar]
Excess pressure:     -4.793429e+02 +/ 3.658293e+01 [bar]
Pressure:             9.004048e+00 +/ 2.451557e+01 [bar]

Total potential energy/kʙ  -3.082216e+05 (-2.811255e+05 +/- 4.472828e+03) [K]
-------------------------------------------------------------------------------
ExternalField-molecule
    Van der Waals/kʙ        0.000000e+00 ( 0.000000e+00 +/- 0.000000e+00) [K]
Framework-molecule
    Van der Waals/kʙ        0.000000e+00 ( 0.000000e+00 +/- 0.000000e+00) [K]
    Van der Waals (Tail)/kʙ 0.000000e+00 ( 0.000000e+00 +/- 0.000000e+00) [K]
    Coulombic Real/kʙ       0.000000e+00 ( 0.000000e+00 +/- 0.000000e+00) [K]
    Coulombic Fourier/kʙ    0.000000e+00 ( 0.000000e+00 +/- 0.000000e+00) [K]
Molecule-molecule
    Van der Waals/kʙ       -2.284721e+05 (-2.058128e+05 +/- 3.116597e+03) [K]
    Van der Waals (Tail)/kʙ-7.249549e+03 (-6.582782e+03 +/- 9.830398e+01) [K]
    Coulombic Real/kʙ      -6.153184e+04 (-5.915176e+04 +/- 1.420510e+03) [K]
    Coulombic Fourier/kʙ   -1.096808e+04 (-9.578252e+03 +/- 2.021930e+02) [K]
    Molecule Intra/kʙ       0.000000e+00 ( 0.000000e+00 +/- 0.000000e+00) [K]


Energy statistics             |  Energy [K]   | Recomputed [K]|  Drift [K]    |
===============================================================================
Total potential energy/kʙ     | -2.532870e+05 | -2.535886e+05 |  3.016617e+02 |
    external field VDW/kʙ     |  0.000000e+00 |  0.000000e+00 |  0.000000e+00 |
    external field Real/kʙ    |  0.000000e+00 |  0.000000e+00 |  0.000000e+00 |
    framework-molecule VDW/kʙ |  0.000000e+00 |  0.000000e+00 |  0.000000e+00 |
    framework-molecule Real/kʙ|  0.000000e+00 |  0.000000e+00 |  0.000000e+00 |
    molecule-molecule VDW/kʙ  | -1.881267e+05 | -1.884285e+05 |  3.017433e+02 |
    molecule-molecule Real/kʙ | -5.063993e+04 | -5.063985e+04 | -8.158784e-02 |
    Van der Waals (Tail)/kʙ   | -5.979029e+03 | -5.979029e+03 |  7.897751e-10 |
    Ewald Fourier/kʙ          |  1.051951e+04 |  1.051951e+04 |  4.375485e-12 |
    Ewald self/kʙ             | -4.224926e+06 | -4.224926e+06 |  0.000000e+00 |
    Ewald exclusion/kʙ        |  4.205866e+06 |  4.205866e+06 |  0.000000e+00 |
    intra VDW/kʙ              |  0.000000e+00 |  0.000000e+00 |  0.000000e+00 |
    intra Coulombic/kʙ        |  0.000000e+00 |  0.000000e+00 |  0.000000e+00 |
    polarization/kʙ           |  0.000000e+00 |  0.000000e+00 |  0.000000e+00 |
    dU/dlambda VDW/kʙ         |  0.000000e+00 |  0.000000e+00 |  0.000000e+00 |
    dU/dlambda Real/kʙ        |  0.000000e+00 |  0.000000e+00 |  0.000000e+00 |
    dU/dlambda Ewald/kʙ       |  0.000000e+00 |  0.000000e+00 |  0.000000e+00 |
-------------------------------------------------------------------------------


Monte-Carlo moves statistics
===============================================================================

    Gibbs volume         all:                3038
    Gibbs volume         total:              6031
    Gibbs volume         constructed:        6031
    Gibbs volume         accepted:           2716
    Gibbs volume         fraction:       0.450340
    Gibbs volume         max-change:     0.059946

Component 0 [CO2]
    Reinsertion (CBMC)   all:              149446
    Reinsertion (CBMC)   total:            149446
    Reinsertion (CBMC)   constructed:      143320
    Reinsertion (CBMC)   accepted:           7856
    Reinsertion (CBMC)   fraction:       0.052567
    Reinsertion (CBMC)   max-change:     0.000000

    Gibbs swap (CBMC)    all:              298093
    Gibbs swap (CBMC)    total:            596820
    Gibbs swap (CBMC)    constructed:      584102
    Gibbs swap (CBMC)    accepted:          77284
    Gibbs swap (CBMC)    fraction:       0.129493
    Gibbs swap (CBMC)    max-change:     0.000000

    Translation          all:              149282
    Translation          total:             49699      49829      49754
    Translation          constructed:       49699      49828      49754
    Translation          accepted:          31015      23338      25316
    Translation          fraction:       0.624057   0.468362   0.508823
    Translation          max-change:     0.638519   0.830459   0.770309

    Rotation             all:              149535
    Rotation             total:             49652      50088      49795
    Rotation             constructed:       49652      50074      49792
    Rotation             accepted:          26191      22009      24086
    Rotation             fraction:       0.527491   0.439407   0.483703
    Rotation             max-change:     0.778464   0.873027   0.820517



Production run counting of the MC moves summed over systems and components
===============================================================================

Reinsertion (CBMC)                   298495 (19.8997 [%])
Gibbs volume                           6031 (0.4021 [%])
Gibbs swap (CBMC)                    596820 (39.7880 [%])
Translation                          298956 (19.9304 [%])
Rotation                             299698 (19.9799 [%])

Production count MC-steps:          1500000 [-]
               All summed:          1500000 [-]
               difference:                0 [-]


Production run CPU timings of the MC moves
===============================================================================

Component 0 CO2

Rotation                             13.209214 [s]
    Ewald                             4.812735 [s]
    ExternalField-Molecule            0.004916 [s]
    Framework-Molecule                0.005496 [s]
    Molecule-Molecule                 8.076677 [s]
    Overhead                          0.309390 [s]

Reinsertion (CBMC)                   65.271512 [s]
    Ewald                             4.707448 [s]
    NonEwald                         60.464940 [s]
    Overhead                          0.099124 [s]

Translation                          13.226905 [s]
    Ewald                             4.804054 [s]
    ExternalField-Molecule            0.005043 [s]
    Framework-Molecule                0.008140 [s]
    Molecule-Molecule                 8.084184 [s]
    Overhead                          0.325484 [s]



Gibbs swap (CBMC)                    94.549966 [s]
    Ewald                            12.683428 [s]
    NonEwald                         80.615934 [s]
    Tail                              0.794825 [s]

Gibbs volume                         14.148259 [s]
    Ewald                             4.355752 [s]
    NonEwald                          9.291121 [s]
    Tail                              0.416115 [s]

Property sampling                     0.235996 [s]
Energy/pressure sampling:             5.991795 [s]


Production run CPU timings of the MC moves summed over systems and components
===============================================================================


Translation                          18.066263 [s]
    Ewald                             8.199836 [s]
    ExternalField-Molecule            0.010188 [s]
    Framework-Molecule                0.016263 [s]
    Molecule-Molecule                 9.180278 [s]
    Overhead                          0.659698 [s]

Rotation                             18.067451 [s]
    Ewald                             8.226761 [s]
    ExternalField-Molecule            0.009792 [s]
    Framework-Molecule                0.010952 [s]
    Molecule-Molecule                 9.168247 [s]
    Overhead                          0.651699 [s]

Reinsertion (CBMC)                   80.223127 [s]
    Ewald                             8.141792 [s]
    NonEwald                         71.726934 [s]
    Overhead                          0.354401 [s]

Gibbs volume                         28.113344 [s]
    Ewald                             8.665445 [s]
    NonEwald                         18.450150 [s]
    Tail                              0.829379 [s]
    Overhead                          0.168370 [s]

Gibbs swap (CBMC)                   214.016196 [s]
    Ewald                            25.985186 [s]
    NonEwald                        185.322728 [s]
    Tail                              1.766548 [s]
    Overhead                          0.941734 [s]

Property sampling:                    0.479378 [s]
Energy/pressure sampling:             6.539128 [s]

Production simulation time:         366.260486 [s]
                All summed:         365.504887 [s]
                  Overhead:           0.755599 [s]


Initalization simulation time:      115.567551 [s]
Equilibration simulation time:        0.000000 [s]
Production simulation time:         366.260486 [s]
Total simulation time:              481.828037 [s]


Energy averages and statistics:
===============================================================================

Framework-molecule energy:
-------------------------------------------------------------------------------



Framework-molecule energy contributions per energy type:
-------------------------------------------------------------------------------



Inter-molecular energy:
-------------------------------------------------------------------------------

    Inter-molecular energy/kʙ 0-0 [CO2-CO2]:
    ---------------------------------------------------------------------------
        Block[  0] -2.833772e+05
        Block[  1] -2.830558e+05
        Block[  2] -2.824431e+05
        Block[  3] -2.747604e+05
        Block[  4] -2.824909e+05
        -----------------------------------------------------------------------
        Average  -2.812255e+05 +/-  4.513072e+03 [K]



Inter-molecular energy contributions per energy type:
-------------------------------------------------------------------------------

    Van der Waals energy/kʙ 0-0 [CO2-CO2]:
    ---------------------------------------------------------------------------
        Block[  0] -2.077004e+05
        Block[  1] -2.063670e+05
        Block[  2] -2.075076e+05
        Block[  3] -2.015189e+05
        Block[  4] -2.063795e+05
        -----------------------------------------------------------------------
        Average  -2.058947e+05 +/-  3.132554e+03 [K]

    VDW Tail-Correction energy/kʙ 0-0 [CO2-CO2]:
    ---------------------------------------------------------------------------
        Block[  0] -6.645420e+03
        Block[  1] -6.606363e+03
        Block[  2] -6.642041e+03
        Block[  3] -6.453190e+03
        Block[  4] -6.576319e+03
        -----------------------------------------------------------------------
        Average  -6.584667e+03 +/-  9.777146e+01 [K]

    Coulomb Real energy/kʙ 0-0 [CO2-CO2]:
    ---------------------------------------------------------------------------
        Block[  0] -5.927267e+04
        Block[  1] -6.038113e+04
        Block[  2] -5.876165e+04
        Block[  3] -5.744610e+04
        Block[  4] -5.998149e+04
        -----------------------------------------------------------------------
        Average  -5.916861e+04 +/-  1.425585e+03 [K]

    Coulomb Fourier energy/kʙ 0-0 [CO2-CO2]:
    ---------------------------------------------------------------------------
        Block[  0] -9.758685e+03
        Block[  1] -9.701359e+03
        Block[  2] -9.531823e+03
        Block[  3] -9.342210e+03
        Block[  4] -9.553597e+03
        -----------------------------------------------------------------------
        Average  -9.577535e+03 +/-  2.022753e+02 [K]


Total energy/kʙ
-------------------------------------------------------------------------------
    Block[  0] -2.833772e+05
    Block[  1] -2.830558e+05
    Block[  2] -2.824431e+05
    Block[  3] -2.747604e+05
    Block[  4] -2.824909e+05
    ---------------------------------------------------------------------------
    Average  -2.812255e+05 +/-  4.513072e+03 [K]

Pressure averages and statistics:
===============================================================================

Average pressure tensor: 
-------------------------------------------------------------------------------
 1.6922e+01 -1.6297e-01 -2.8111e+00 +/- 3.0481e+01 1.4736e+01 1.7169e+01 [bar]
-1.6297e-01 -1.0125e+01 -7.6312e+00 +/- 1.4736e+01 6.2467e+01 2.5937e+01 [bar]
-2.8111e+00 -7.6312e+00  1.7441e+01 +/- 1.7169e+01 2.5937e+01 5.5471e+01 [bar]

    Block[  0]  4.882106e+07
    Block[  1]  4.936149e+07
    Block[  2]  4.768285e+07
    Block[  3]  4.808515e+07
    Block[  4]  5.014626e+07
    ---------------------------------------------------------------------------
    Ideal gas pressure   4.881936e+07 +/-  7.368281e-02 [Pa]
                         4.881936e+02 +/-  1.223533e+01 [bar]


    Block[  0] -4.921997e+07
    Block[  1] -4.893597e+07
    Block[  2] -4.528126e+07
    Block[  3] -4.475483e+07
    Block[  4] -5.186505e+07
    ---------------------------------------------------------------------------
    Excess pressure  -4.801142e+07 +/-  3.684087e+06 [Pa]
                     -4.801142e+02 +/-  3.684087e+01 [bar]


    Block[  0] -3.989093e+05
    Block[  1]  4.255211e+05
    Block[  2]  2.401593e+06
    Block[  3]  3.330314e+06
    Block[  4] -1.718792e+06
    ---------------------------------------------------------------------------
    Pressure average   8.079452e+05 +/-  2.550992e+06 [Pa]
                       8.079452e+00 +/-  2.550992e+01 [bar]


Enthalpy of adsorption
===============================================================================

Component 0 [CO2]
-------------------------------------------------------------------------------
    Block[  0] -2.171085e+03
    Block[  1] -1.737702e+03
    Block[  2] -1.815153e+03
    Block[  3] -1.666027e+03
    Block[  4] -1.717365e+03
    ---------------------------------------------------------------------------
    Enthalpy of adsorption: -1.821466e+03 +/-  2.515980e+02 [K]
                            -1.514452e+01 +/-  2.091903e+00 [kJ/mol]
    Warning: need to subtract the ideal-gas energy.


Densities
===============================================================================

Component 0 (CO2)
    Block[  0] 210.0966666666667
    Block[  1] 206.56166666666667
    Block[  2] 214.50333333333336
    Block[  3] 208.2775
    Block[  4] 203.8841666666667
    -----------------------------------------------------------------------
    Density average   2.086647e+02 +/-  4.949007e+00 [molecules]
    Density average   1.309618e-02 +/-  3.282223e-04 [molec/A^3]
    Density average   9.568293e+02 +/-  2.398048e+01 [kg.m⁻³]

