Compiler and run-time data
===============================================================================
RASPA 3.0.4

Random seed: 2694004252

Compiled as a 64-bits application
Compiler: gcc Ubuntu Clang 18.1.3 (1ubuntu1)
Compile Date = Mar 15 2025, Compile Time = 19:39:45

2025-06-02 13:48:15.175590
Simulation started on Mon, Jun 02
The start time was 13:48:00

Hostname:    c060
OS type:     Linux on x86_64
OS release:  6.8.0-58-generic
OS version:  #60-Ubuntu SMP PREEMPT_DYNAMIC Fri Mar 14 18:29:48 UTC 2025


Mutual consistent basic set of units:
===============================================================================

Unit of temperature: 1 [K]
Unit of length:      1e-10 [m]
Unit of time:        1e-12 [s]
Unit of mass:        1.6605402e-27 [kg]
Unit of charge:      1.60217733e-19 [C/particle]


Boltzmann constant (internal units):          0.8314464919307584 [-]
represents conversion from energy (internal units) to temperature (in Kelvin)

Derived units and their conversion factors:
===============================================================================

Unit of energy:                           1.6605402000000002e-23 [J]
Unit of energy:                           10.000008872307538 [J.mol⁻¹]
Unit of velocity:                         100 [m.s⁻¹]
Unit of force:                            1.6605402000000002e-13 [N]
Unit of diffusion:                        1.0000000000000002e-08 [m².s⁻¹]
Unit of acceleration:                     1.0000000000000002e-08 [m².s⁻¹]
Unit of torque:                           1.6605402000000002e-23 [N.m]
Unit of pressure:                         16605402 [Pa]
Unit of volume:                           1e-30 [m³]
Unit of density:                          1660.5402 [kg.m⁻³]
Unit of dynamic viscosity:                1.6605401999999997e-05 [N.s.m⁻²]
Unit of enthalpy:                         1.6605402000000002e-23 [J]
Unit of polarizability:                   1.5458657349975198e-35 [-]
Unit of Coulomb potential:                167101.08000665612 [K]
Unit of dielectric constant:              1.5458657349975193e-05 [s².C².kg⁻¹.m⁻³]
Unit of dipole moment:                    1.60217733e-29 [C.m]
Unit of Debye:                            4.803206799099162 [C.m]
Unit of electric potential:               0.00010364272224473431 [V]
Unit of electric field:                   1036427.222447343 [V.m⁻¹]
Unit of isothermal compressibility:       6.02213665167516e-08 [Pa⁻¹]
Unit of heat capacity:                    10.000008872307538 [J.mol⁻¹.K⁻¹]
Unit of volumetric expansion coefficient: 1 [K⁻¹]


Internal conversion factors:
===============================================================================

Energy (internal units) to Kelvin:      1.202724284692786 [-]
Kelvin to energy (internal units):      0.8314457542157567 [-]


System definitions
===============================================================================

Temperature:          250 [K]
Beta:                 0.0048108928702210625 [-]
Pressure:             8e+06 [Pa]
Helium void fraction: 1 [-]

Box:      30.00000   0.00000   0.00000
           0.00000  30.00000   0.00000
           0.00000   0.00000  30.00000
Lengths:  30.00000  30.00000  30.00000
Angles:   90.00000  90.00000  90.00000
Rectangular boundary conditions



Property measurement settings
===============================================================================




Pseudo-atoms
===============================================================================

  0 - C_co2    framework-atom: false
  1 - O_co2    framework-atom: false

  0 - C_co2    mass: 12.00000, charge:  0.70000
  1 - O_co2    mass: 15.99940, charge: -0.35000

  0 - C_co2    polarizability:  0.00000
  1 - O_co2    polarizability:  0.00000

  0 - J. J. Potoff et al., AIChE J. 2001, 47, 1676–1682.
  1 - J. J. Potoff et al., AIChE J. 2001, 47, 1676–1682.

Force field status
===============================================================================

Cutoff Framework-Molecule VDW:  10.00000 [Å]
Cutoff Molecule-Molecule VDW:   10.00000 [Å]
Cutoff Coulomb:                 10.00000 [Å]

Overlap-criteria VDW:           1.000000e+05 [K]

C_co2    - C_co2    Lennard-Jones p₀/kʙ:  27.00000 [K], p₁:  2.80000 [Å]
                                  shift:   0.00000 [K], tailcorrections: true
C_co2    - O_co2    Lennard-Jones p₀/kʙ:  46.18441 [K], p₁:  2.92500 [Å]
                                  shift:   0.00000 [K], tailcorrections: true
O_co2    - O_co2    Lennard-Jones p₀/kʙ:  79.00000 [K], p₁:  3.05000 [Å]
                                  shift:   0.00000 [K], tailcorrections: true

Ewald precision: 1e-06
Ewald alpha: 0.32079885109097883
Ewald k-vectors: 10 10 10


Component definitions
===============================================================================

Component 0 [CO2]

    Type: Adsorbate

    Critical temperature:  304.1282 [K]
    Critical pressure:     7377300 [Pa]
    Acentric factor:       0.22394 [-]

    Mol-fraction:                 1 [-]
    Swappable:                   false

    Mass:                         43.9988 [-]
    Bulk fluid density:           0 [-]
    Compressibility:              0 [-]
    Excess molecules:             0 [-]

    Number Of Atoms:    3
    CBMC starting bead: 0
      0: O_co2  position  0.00000 -0.00000  1.16000, charge -0.35000
      1: C_co2  position  0.00000 -0.00000  0.00000, charge  0.70000
      2: O_co2  position  0.00000 -0.00000 -1.16000, charge -0.35000
    Diagonalized inertia-vector:      43.05758528 43.05758528 0.00000000
    Translational degrees of freedom: 3
    Rotational degrees of freedom:    2
    Shape of the molecule is: 'Linear'
    Net-charge:        0.00000000 [e]

    Move probabilities:
    Translation:                   0.331126 [-]
    Random translation:            0.000000 [-]
    Rotation:                      0.331126 [-]
    Random rotation:               0.000000 [-]
    Volume change:                 0.006623 [-]
    Reinsertion (CBMC):            0.331126 [-]
    Identity change (CBMC):        0.000000 [-]
    Swap:                          0.000000 [-]
    Swap (CBMC):                   0.000000 [-]
    Swap (CFCMC):                  0.000000 [-]
    Swap (CB/CFCMC):               0.000000 [-]
    Gibbs volume:                  0.000000 [-]
    Gibbs swap (CBMC):             0.000000 [-]
    Gibbs swap (CFCMC):            0.000000 [-]
    Widom:                         0.000000 [-]
    Widom (CFCMC):                 0.000000 [-]
    Widom (CB/CFCMC):              0.000000 [-]
    Parallel tempering:            0.000000 [-]
    Hybrid MC:                     0.000000 [-]

    number of blocking-pockets: 0

    number of bonds: 0





Number of pseudo-atoms
===============================================================================

Component   0 (CO2)
-------------------------------------------------------------------------------
    index   0 (C_co2): 250 atoms
    index   1 (O_co2): 500 atoms

Total number of pseudo-atoms:
-------------------------------------------------------------------------------
    index   0 (C_co2): 250 atoms
    index   1 (O_co2): 500 atoms




Energy status Recomputed from scratch
===============================================================================

Total potential energy/kʙ       -5.911953e+04 [K]
    external field VDW/kʙ        0.000000e+00 [K]
    external field Real/kʙ       0.000000e+00 [K]
    framework-molecule VDW/kʙ    0.000000e+00 [K]
    framework-molecule Real/kʙ   0.000000e+00 [K]
    molecule-molecule VDW/kʙ    -2.933397e+04 [K]
    molecule-molecule Real/kʙ   -1.727783e+04 [K]
    Van der Waals (Tail)/kʙ     -7.427197e+03 [K]
    Ewald Fourier/kʙ             3.124661e+04 [K]
    Ewald self/kʙ               -5.557308e+06 [K]
    Ewald exclusion/kʙ           5.520981e+06 [K]
    intra VDW/kʙ                 0.000000e+00 [K]
    intra Coulombic/kʙ           0.000000e+00 [K]
    polarization/kʙ              0.000000e+00 [K]
    dU/dlambda VDW/kʙ            0.000000e+00 [K]
    dU/dlambda Real/kʙ           0.000000e+00 [K]
    dU/dlambda Ewald/kʙ          0.000000e+00 [K]





Initialization: Current cycle: 0 out of 1000
===============================================================================

Box:      30.00000   0.00000   0.00000
           0.00000  30.00000   0.00000
           0.00000   0.00000  30.00000
Lengths:  30.00000  30.00000  30.00000
Angles:   90.00000  90.00000  90.00000
Rectangular boundary conditions

net charge:   0.00000000

component   0 (CO2) lambda:  0 occupancy:  1 (1.000000)
    net charge:   0.00000000 [e]

Amount of molecules per component :
-------------------------------------------------------------------------------
Component 0 (CO2)
    molecules:         2.500000e+02 molecules
    number density:    9.259259e-03 molec/A^3
    density:           6.764973e+02 kg/m^3

Total potential energy/kʙ       -1.700855e+05 [K]
-------------------------------------------------------------------------------
    external field VDW/kʙ        0.000000e+00 [K]
    external field Real/kʙ       0.000000e+00 [K]
    framework-molecule VDW/kʙ    0.000000e+00 [K]
    framework-molecule Real/kʙ   0.000000e+00 [K]
    molecule-molecule VDW/kʙ    -1.265955e+05 [K]
    molecule-molecule Real/kʙ   -2.863818e+04 [K]
    Van der Waals (Tail)/kʙ     -7.427197e+03 [K]
    Ewald Fourier/kʙ             2.890248e+04 [K]
    Ewald self/kʙ               -5.557308e+06 [K]
    Ewald exclusion/kʙ           5.520981e+06 [K]
    intra VDW/kʙ                 0.000000e+00 [K]
    intra Coulombic/kʙ           0.000000e+00 [K]
    polarization/kʙ              0.000000e+00 [K]
    dU/dlambda VDW/kʙ            0.000000e+00 [K]
    dU/dlambda Real/kʙ           0.000000e+00 [K]
    dU/dlambda Ewald/kʙ          0.000000e+00 [K]


Initialization: Current cycle: 100 out of 1000
===============================================================================

Box:      28.38221   0.00000   0.00000
           0.00000  28.38221   0.00000
           0.00000   0.00000  28.38221
Lengths:  28.38221  28.38221  28.38221
Angles:   90.00000  90.00000  90.00000
Rectangular boundary conditions

net charge:   0.00000000

component   0 (CO2) lambda:  0 occupancy:  1 (1.000000)
    net charge:   0.00000000 [e]

Amount of molecules per component :
-------------------------------------------------------------------------------
Component 0 (CO2)
    molecules:         2.500000e+02 molecules
    number density:    1.093456e-02 molec/A^3
    density:           7.988977e+02 kg/m^3

Total potential energy/kʙ       -2.891247e+05 [K]
-------------------------------------------------------------------------------
    external field VDW/kʙ        0.000000e+00 [K]
    external field Real/kʙ       0.000000e+00 [K]
    framework-molecule VDW/kʙ    0.000000e+00 [K]
    framework-molecule Real/kʙ   0.000000e+00 [K]
    molecule-molecule VDW/kʙ    -2.066868e+05 [K]
    molecule-molecule Real/kʙ   -5.860395e+04 [K]
    Van der Waals (Tail)/kʙ     -8.771019e+03 [K]
    Ewald Fourier/kʙ             2.126417e+04 [K]
    Ewald self/kʙ               -5.557308e+06 [K]
    Ewald exclusion/kʙ           5.520981e+06 [K]
    intra VDW/kʙ                 0.000000e+00 [K]
    intra Coulombic/kʙ           0.000000e+00 [K]
    polarization/kʙ              0.000000e+00 [K]
    dU/dlambda VDW/kʙ            0.000000e+00 [K]
    dU/dlambda Real/kʙ           0.000000e+00 [K]
    dU/dlambda Ewald/kʙ          0.000000e+00 [K]


Initialization: Current cycle: 200 out of 1000
===============================================================================

Box:      27.44296   0.00000   0.00000
           0.00000  27.44296   0.00000
           0.00000   0.00000  27.44296
Lengths:  27.44296  27.44296  27.44296
Angles:   90.00000  90.00000  90.00000
Rectangular boundary conditions

net charge:   0.00000000

component   0 (CO2) lambda:  0 occupancy:  1 (1.000000)
    net charge:   0.00000000 [e]

Amount of molecules per component :
-------------------------------------------------------------------------------
Component 0 (CO2)
    molecules:         2.500000e+02 molecules
    number density:    1.209615e-02 molec/A^3
    density:           8.837651e+02 kg/m^3

Total potential energy/kʙ       -3.209742e+05 [K]
-------------------------------------------------------------------------------
    external field VDW/kʙ        0.000000e+00 [K]
    external field Real/kʙ       0.000000e+00 [K]
    framework-molecule VDW/kʙ    0.000000e+00 [K]
    framework-molecule Real/kʙ   0.000000e+00 [K]
    molecule-molecule VDW/kʙ    -2.276774e+05 [K]
    molecule-molecule Real/kʙ   -6.729218e+04 [K]
    Van der Waals (Tail)/kʙ     -9.702769e+03 [K]
    Ewald Fourier/kʙ             2.002529e+04 [K]
    Ewald self/kʙ               -5.557308e+06 [K]
    Ewald exclusion/kʙ           5.520981e+06 [K]
    intra VDW/kʙ                 0.000000e+00 [K]
    intra Coulombic/kʙ           0.000000e+00 [K]
    polarization/kʙ              0.000000e+00 [K]
    dU/dlambda VDW/kʙ            0.000000e+00 [K]
    dU/dlambda Real/kʙ           0.000000e+00 [K]
    dU/dlambda Ewald/kʙ          0.000000e+00 [K]


Initialization: Current cycle: 300 out of 1000
===============================================================================

Box:      26.44867   0.00000   0.00000
           0.00000  26.44867   0.00000
           0.00000   0.00000  26.44867
Lengths:  26.44867  26.44867  26.44867
Angles:   90.00000  90.00000  90.00000
Rectangular boundary conditions

net charge:   0.00000000

component   0 (CO2) lambda:  0 occupancy:  1 (1.000000)
    net charge:   0.00000000 [e]

Amount of molecules per component :
-------------------------------------------------------------------------------
Component 0 (CO2)
    molecules:         2.500000e+02 molecules
    number density:    1.351228e-02 molec/A^3
    density:           9.872302e+02 kg/m^3

Total potential energy/kʙ       -3.556802e+05 [K]
-------------------------------------------------------------------------------
    external field VDW/kʙ        0.000000e+00 [K]
    external field Real/kʙ       0.000000e+00 [K]
    framework-molecule VDW/kʙ    0.000000e+00 [K]
    framework-molecule Real/kʙ   0.000000e+00 [K]
    molecule-molecule VDW/kʙ    -2.484783e+05 [K]
    molecule-molecule Real/kʙ   -7.786981e+04 [K]
    Van der Waals (Tail)/kʙ     -1.083870e+04 [K]
    Ewald Fourier/kʙ             1.783375e+04 [K]
    Ewald self/kʙ               -5.557308e+06 [K]
    Ewald exclusion/kʙ           5.520981e+06 [K]
    intra VDW/kʙ                 0.000000e+00 [K]
    intra Coulombic/kʙ           0.000000e+00 [K]
    polarization/kʙ              0.000000e+00 [K]
    dU/dlambda VDW/kʙ            0.000000e+00 [K]
    dU/dlambda Real/kʙ           0.000000e+00 [K]
    dU/dlambda Ewald/kʙ          0.000000e+00 [K]


Initialization: Current cycle: 400 out of 1000
===============================================================================

Box:      26.42456   0.00000   0.00000
           0.00000  26.42456   0.00000
           0.00000   0.00000  26.42456
Lengths:  26.42456  26.42456  26.42456
Angles:   90.00000  90.00000  90.00000
Rectangular boundary conditions

net charge:   0.00000000

component   0 (CO2) lambda:  0 occupancy:  1 (1.000000)
    net charge:   0.00000000 [e]

Amount of molecules per component :
-------------------------------------------------------------------------------
Component 0 (CO2)
    molecules:         2.500000e+02 molecules
    number density:    1.354930e-02 molec/A^3
    density:           9.899349e+02 kg/m^3

Total potential energy/kʙ       -3.624768e+05 [K]
-------------------------------------------------------------------------------
    external field VDW/kʙ        0.000000e+00 [K]
    external field Real/kʙ       0.000000e+00 [K]
    framework-molecule VDW/kʙ    0.000000e+00 [K]
    framework-molecule Real/kʙ   0.000000e+00 [K]
    molecule-molecule VDW/kʙ    -2.617827e+05 [K]
    molecule-molecule Real/kʙ   -7.199771e+04 [K]
    Van der Waals (Tail)/kʙ     -1.086840e+04 [K]
    Ewald Fourier/kʙ             1.849916e+04 [K]
    Ewald self/kʙ               -5.557308e+06 [K]
    Ewald exclusion/kʙ           5.520981e+06 [K]
    intra VDW/kʙ                 0.000000e+00 [K]
    intra Coulombic/kʙ           0.000000e+00 [K]
    polarization/kʙ              0.000000e+00 [K]
    dU/dlambda VDW/kʙ            0.000000e+00 [K]
    dU/dlambda Real/kʙ           0.000000e+00 [K]
    dU/dlambda Ewald/kʙ          0.000000e+00 [K]


Initialization: Current cycle: 500 out of 1000
===============================================================================

Box:      26.23852   0.00000   0.00000
           0.00000  26.23852   0.00000
           0.00000   0.00000  26.23852
Lengths:  26.23852  26.23852  26.23852
Angles:   90.00000  90.00000  90.00000
Rectangular boundary conditions

net charge:   0.00000000

component   0 (CO2) lambda:  0 occupancy:  1 (1.000000)
    net charge:   0.00000000 [e]

Amount of molecules per component :
-------------------------------------------------------------------------------
Component 0 (CO2)
    molecules:         2.500000e+02 molecules
    number density:    1.383955e-02 molec/A^3
    density:           1.011141e+03 kg/m^3

Total potential energy/kʙ       -3.579936e+05 [K]
-------------------------------------------------------------------------------
    external field VDW/kʙ        0.000000e+00 [K]
    external field Real/kʙ       0.000000e+00 [K]
    framework-molecule VDW/kʙ    0.000000e+00 [K]
    framework-molecule Real/kʙ   0.000000e+00 [K]
    molecule-molecule VDW/kʙ    -2.592481e+05 [K]
    molecule-molecule Real/kʙ   -6.968600e+04 [K]
    Van der Waals (Tail)/kʙ     -1.110122e+04 [K]
    Ewald Fourier/kʙ             1.836887e+04 [K]
    Ewald self/kʙ               -5.557308e+06 [K]
    Ewald exclusion/kʙ           5.520981e+06 [K]
    intra VDW/kʙ                 0.000000e+00 [K]
    intra Coulombic/kʙ           0.000000e+00 [K]
    polarization/kʙ              0.000000e+00 [K]
    dU/dlambda VDW/kʙ            0.000000e+00 [K]
    dU/dlambda Real/kʙ           0.000000e+00 [K]
    dU/dlambda Ewald/kʙ          0.000000e+00 [K]


Initialization: Current cycle: 600 out of 1000
===============================================================================

Box:      26.26919   0.00000   0.00000
           0.00000  26.26919   0.00000
           0.00000   0.00000  26.26919
Lengths:  26.26919  26.26919  26.26919
Angles:   90.00000  90.00000  90.00000
Rectangular boundary conditions

net charge:   0.00000000

component   0 (CO2) lambda:  0 occupancy:  1 (1.000000)
    net charge:   0.00000000 [e]

Amount of molecules per component :
-------------------------------------------------------------------------------
Component 0 (CO2)
    molecules:         2.500000e+02 molecules
    number density:    1.379113e-02 molec/A^3
    density:           1.007603e+03 kg/m^3

Total potential energy/kʙ       -3.563964e+05 [K]
-------------------------------------------------------------------------------
    external field VDW/kʙ        0.000000e+00 [K]
    external field Real/kʙ       0.000000e+00 [K]
    framework-molecule VDW/kʙ    0.000000e+00 [K]
    framework-molecule Real/kʙ   0.000000e+00 [K]
    molecule-molecule VDW/kʙ    -2.552729e+05 [K]
    molecule-molecule Real/kʙ   -7.328967e+04 [K]
    Van der Waals (Tail)/kʙ     -1.106238e+04 [K]
    Ewald Fourier/kʙ             1.955565e+04 [K]
    Ewald self/kʙ               -5.557308e+06 [K]
    Ewald exclusion/kʙ           5.520981e+06 [K]
    intra VDW/kʙ                 0.000000e+00 [K]
    intra Coulombic/kʙ           0.000000e+00 [K]
    polarization/kʙ              0.000000e+00 [K]
    dU/dlambda VDW/kʙ            0.000000e+00 [K]
    dU/dlambda Real/kʙ           0.000000e+00 [K]
    dU/dlambda Ewald/kʙ          0.000000e+00 [K]


Initialization: Current cycle: 700 out of 1000
===============================================================================

Box:      25.92598   0.00000   0.00000
           0.00000  25.92598   0.00000
           0.00000   0.00000  25.92598
Lengths:  25.92598  25.92598  25.92598
Angles:   90.00000  90.00000  90.00000
Rectangular boundary conditions

net charge:   0.00000000

component   0 (CO2) lambda:  0 occupancy:  1 (1.000000)
    net charge:   0.00000000 [e]

Amount of molecules per component :
-------------------------------------------------------------------------------
Component 0 (CO2)
    molecules:         2.500000e+02 molecules
    number density:    1.434611e-02 molec/A^3
    density:           1.048152e+03 kg/m^3

Total potential energy/kʙ       -3.761307e+05 [K]
-------------------------------------------------------------------------------
    external field VDW/kʙ        0.000000e+00 [K]
    external field Real/kʙ       0.000000e+00 [K]
    framework-molecule VDW/kʙ    0.000000e+00 [K]
    framework-molecule Real/kʙ   0.000000e+00 [K]
    molecule-molecule VDW/kʙ    -2.698895e+05 [K]
    molecule-molecule Real/kʙ   -7.515072e+04 [K]
    Van der Waals (Tail)/kʙ     -1.150755e+04 [K]
    Ewald Fourier/kʙ             1.674416e+04 [K]
    Ewald self/kʙ               -5.557308e+06 [K]
    Ewald exclusion/kʙ           5.520981e+06 [K]
    intra VDW/kʙ                 0.000000e+00 [K]
    intra Coulombic/kʙ           0.000000e+00 [K]
    polarization/kʙ              0.000000e+00 [K]
    dU/dlambda VDW/kʙ            0.000000e+00 [K]
    dU/dlambda Real/kʙ           0.000000e+00 [K]
    dU/dlambda Ewald/kʙ          0.000000e+00 [K]


Initialization: Current cycle: 800 out of 1000
===============================================================================

Box:      25.96558   0.00000   0.00000
           0.00000  25.96558   0.00000
           0.00000   0.00000  25.96558
Lengths:  25.96558  25.96558  25.96558
Angles:   90.00000  90.00000  90.00000
Rectangular boundary conditions

net charge:   0.00000000

component   0 (CO2) lambda:  0 occupancy:  1 (1.000000)
    net charge:   0.00000000 [e]

Amount of molecules per component :
-------------------------------------------------------------------------------
Component 0 (CO2)
    molecules:         2.500000e+02 molecules
    number density:    1.428058e-02 molec/A^3
    density:           1.043364e+03 kg/m^3

Total potential energy/kʙ       -3.826730e+05 [K]
-------------------------------------------------------------------------------
    external field VDW/kʙ        0.000000e+00 [K]
    external field Real/kʙ       0.000000e+00 [K]
    framework-molecule VDW/kʙ    0.000000e+00 [K]
    framework-molecule Real/kʙ   0.000000e+00 [K]
    molecule-molecule VDW/kʙ    -2.716602e+05 [K]
    molecule-molecule Real/kʙ   -7.969741e+04 [K]
    Van der Waals (Tail)/kʙ     -1.145499e+04 [K]
    Ewald Fourier/kʙ             1.646670e+04 [K]
    Ewald self/kʙ               -5.557308e+06 [K]
    Ewald exclusion/kʙ           5.520981e+06 [K]
    intra VDW/kʙ                 0.000000e+00 [K]
    intra Coulombic/kʙ           0.000000e+00 [K]
    polarization/kʙ              0.000000e+00 [K]
    dU/dlambda VDW/kʙ            0.000000e+00 [K]
    dU/dlambda Real/kʙ           0.000000e+00 [K]
    dU/dlambda Ewald/kʙ          0.000000e+00 [K]


Initialization: Current cycle: 900 out of 1000
===============================================================================

Box:      25.50255   0.00000   0.00000
           0.00000  25.50255   0.00000
           0.00000   0.00000  25.50255
Lengths:  25.50255  25.50255  25.50255
Angles:   90.00000  90.00000  90.00000
Rectangular boundary conditions

net charge:   0.00000000

component   0 (CO2) lambda:  0 occupancy:  1 (1.000000)
    net charge:   0.00000000 [e]

Amount of molecules per component :
-------------------------------------------------------------------------------
Component 0 (CO2)
    molecules:         2.500000e+02 molecules
    number density:    1.507263e-02 molec/A^3
    density:           1.101232e+03 kg/m^3

Total potential energy/kʙ       -3.958999e+05 [K]
-------------------------------------------------------------------------------
    external field VDW/kʙ        0.000000e+00 [K]
    external field Real/kʙ       0.000000e+00 [K]
    framework-molecule VDW/kʙ    0.000000e+00 [K]
    framework-molecule Real/kʙ   0.000000e+00 [K]
    molecule-molecule VDW/kʙ    -2.881145e+05 [K]
    molecule-molecule Real/kʙ   -7.637121e+04 [K]
    Van der Waals (Tail)/kʙ     -1.209032e+04 [K]
    Ewald Fourier/kʙ             1.700325e+04 [K]
    Ewald self/kʙ               -5.557308e+06 [K]
    Ewald exclusion/kʙ           5.520981e+06 [K]
    intra VDW/kʙ                 0.000000e+00 [K]
    intra Coulombic/kʙ           0.000000e+00 [K]
    polarization/kʙ              0.000000e+00 [K]
    dU/dlambda VDW/kʙ            0.000000e+00 [K]
    dU/dlambda Real/kʙ           0.000000e+00 [K]
    dU/dlambda Ewald/kʙ          0.000000e+00 [K]


Current cycle: 0 out of 5000
===============================================================================

Box:      25.41475   0.00000   0.00000  Average:  25.41475   0.00000   0.00000
           0.00000  25.41475   0.00000             0.00000  25.41475   0.00000
           0.00000   0.00000  25.41475             0.00000   0.00000  25.41475
Lengths:  25.41475  25.41475  25.41475  Average:  25.41475  25.41475  25.41475
Angles:   90.00000  90.00000  90.00000  Average:  90.00000  90.00000  90.00000
Rectangular boundary conditions

net charge:   0.00000000

component 0 (CO2) lambda:  0 occupancy:  1 (1.000000)
    net charge:   0.00000000 [e]

Amount of molecules per component :
-------------------------------------------------------------------------------
Component 0 (CO2)
    molecules:      2.500000e+02 molecules  (2.500000e+02 +/- 0.000000e+00)
    number density: 1.522939e-02 molec./A^3 (1.522939e-02 +/- 0.000000e+00)
    density:        1.112685e+03 kg/m^3     (1.112685e+03 +/- 0.000000e+00)

Average pressure tensor: 
-------------------------------------------------------------------------------
 5.2566e+02  0.0000e+00  0.0000e+00 +/- 0.0000e+00 0.0000e+00 0.0000e+00 [bar]
 0.0000e+00  5.2566e+02  0.0000e+00 +/- 0.0000e+00 0.0000e+00 0.0000e+00 [bar]
 0.0000e+00  0.0000e+00  5.2566e+02 +/- 0.0000e+00 0.0000e+00 0.0000e+00 [bar]
Ideal-gas pressure:   5.256616e+02 +/ 0.000000e+00 [bar]
Excess pressure:      0.000000e+00 +/ 0.000000e+00 [bar]
Pressure:             5.256616e+02 +/ 0.000000e+00 [bar]

Total potential energy/kʙ  -4.016585e+05 (-4.016585e+05 +/- 0.000000e+00) [K]
-------------------------------------------------------------------------------
ExternalField-molecule
    Van der Waals/kʙ        0.000000e+00 ( 0.000000e+00 +/- 0.000000e+00) [K]
Framework-molecule
    Van der Waals/kʙ        0.000000e+00 ( 0.000000e+00 +/- 0.000000e+00) [K]
    Van der Waals (Tail)/kʙ 0.000000e+00 ( 0.000000e+00 +/- 0.000000e+00) [K]
    Coulombic Real/kʙ       0.000000e+00 ( 0.000000e+00 +/- 0.000000e+00) [K]
    Coulombic Fourier/kʙ    0.000000e+00 ( 0.000000e+00 +/- 0.000000e+00) [K]
Molecule-molecule
    Van der Waals/kʙ       -2.865667e+05 (-2.865667e+05 +/- 0.000000e+00) [K]
    Van der Waals (Tail)/kʙ-1.221606e+04 (-1.221606e+04 +/- 0.000000e+00) [K]
    Coulombic Real/kʙ      -8.388666e+04 (-8.388666e+04 +/- 0.000000e+00) [K]
    Coulombic Fourier/kʙ   -1.898910e+04 (-1.898910e+04 +/- 0.000000e+00) [K]
    Molecule Intra/kʙ       0.000000e+00 ( 0.000000e+00 +/- 0.000000e+00) [K]

Current cycle: 100 out of 5000
===============================================================================

Box:      25.72055   0.00000   0.00000  Average:  25.66267   0.00000   0.00000
           0.00000  25.72055   0.00000             0.00000  25.66267   0.00000
           0.00000   0.00000  25.72055             0.00000   0.00000  25.66267
Lengths:  25.72055  25.72055  25.72055  Average:  25.66267  25.66267  25.66267
Angles:   90.00000  90.00000  90.00000  Average:  90.00000  90.00000  90.00000
Rectangular boundary conditions

net charge:   0.00000000

component 0 (CO2) lambda:  0 occupancy:  1 (1.000000)
    net charge:   0.00000000 [e]

Amount of molecules per component :
-------------------------------------------------------------------------------
Component 0 (CO2)
    molecules:      2.500000e+02 molecules  (2.500000e+02 +/- 0.000000e+00)
    number density: 1.469263e-02 molec./A^3 (1.479373e-02 +/- 0.000000e+00)
    density:        1.073468e+03 kg/m^3     (1.080855e+03 +/- 0.000000e+00)

Average pressure tensor: 
-------------------------------------------------------------------------------
 2.0546e+02  1.7320e+02  5.1709e+01 +/- 0.0000e+00 0.0000e+00 0.0000e+00 [bar]
 1.7320e+02  1.1374e+02 -5.6558e+01 +/- 0.0000e+00 0.0000e+00 0.0000e+00 [bar]
 5.1709e+01 -5.6558e+01 -3.3590e+01 +/- 0.0000e+00 0.0000e+00 0.0000e+00 [bar]
Ideal-gas pressure:   5.106240e+02 +/ 0.000000e+00 [bar]
Excess pressure:     -4.154209e+02 +/ 0.000000e+00 [bar]
Pressure:             9.520316e+01 +/ 0.000000e+00 [bar]

Total potential energy/kʙ  -3.824224e+05 (-3.905290e+05 +/- 0.000000e+00) [K]
-------------------------------------------------------------------------------
ExternalField-molecule
    Van der Waals/kʙ        0.000000e+00 ( 0.000000e+00 +/- 0.000000e+00) [K]
Framework-molecule
    Van der Waals/kʙ        0.000000e+00 ( 0.000000e+00 +/- 0.000000e+00) [K]
    Van der Waals (Tail)/kʙ 0.000000e+00 ( 0.000000e+00 +/- 0.000000e+00) [K]
    Coulombic Real/kʙ       0.000000e+00 ( 0.000000e+00 +/- 0.000000e+00) [K]
    Coulombic Fourier/kʙ    0.000000e+00 ( 0.000000e+00 +/- 0.000000e+00) [K]
Molecule-molecule
    Van der Waals/kʙ       -2.766526e+05 (-2.773259e+05 +/- 0.000000e+00) [K]
    Van der Waals (Tail)/kʙ-1.178550e+04 (-1.187572e+04 +/- 0.000000e+00) [K]
    Coulombic Real/kʙ      -7.463693e+04 (-8.129846e+04 +/- 0.000000e+00) [K]
    Coulombic Fourier/kʙ   -1.934738e+04 (-2.002890e+04 +/- 0.000000e+00) [K]
    Molecule Intra/kʙ       0.000000e+00 ( 0.000000e+00 +/- 0.000000e+00) [K]

Current cycle: 200 out of 5000
===============================================================================

Box:      25.76937   0.00000   0.00000  Average:  25.68513   0.00000   0.00000
           0.00000  25.76937   0.00000             0.00000  25.68513   0.00000
           0.00000   0.00000  25.76937             0.00000   0.00000  25.68513
Lengths:  25.76937  25.76937  25.76937  Average:  25.68513  25.68513  25.68513
Angles:   90.00000  90.00000  90.00000  Average:  90.00000  90.00000  90.00000
Rectangular boundary conditions

net charge:   0.00000000

component 0 (CO2) lambda:  0 occupancy:  1 (1.000000)
    net charge:   0.00000000 [e]

Amount of molecules per component :
-------------------------------------------------------------------------------
Component 0 (CO2)
    molecules:      2.500000e+02 molecules  (2.500000e+02 +/- 0.000000e+00)
    number density: 1.460927e-02 molec./A^3 (1.475469e-02 +/- 0.000000e+00)
    density:        1.067378e+03 kg/m^3     (1.078003e+03 +/- 0.000000e+00)

Average pressure tensor: 
-------------------------------------------------------------------------------
 1.0965e+02  1.4914e+02  1.4619e+02 +/- 0.0000e+00 0.0000e+00 0.0000e+00 [bar]
 1.4914e+02  8.4918e+01 -6.8868e+01 +/- 0.0000e+00 0.0000e+00 0.0000e+00 [bar]
 1.4619e+02 -6.8868e+01 -8.4476e+01 +/- 0.0000e+00 0.0000e+00 0.0000e+00 [bar]
Ideal-gas pressure:   5.092767e+02 +/ 0.000000e+00 [bar]
Excess pressure:     -4.725796e+02 +/ 0.000000e+00 [bar]
Pressure:             3.669711e+01 +/ 0.000000e+00 [bar]

Total potential energy/kʙ  -3.787564e+05 (-3.875473e+05 +/- 0.000000e+00) [K]
-------------------------------------------------------------------------------
ExternalField-molecule
    Van der Waals/kʙ        0.000000e+00 ( 0.000000e+00 +/- 0.000000e+00) [K]
Framework-molecule
    Van der Waals/kʙ        0.000000e+00 ( 0.000000e+00 +/- 0.000000e+00) [K]
    Van der Waals (Tail)/kʙ 0.000000e+00 ( 0.000000e+00 +/- 0.000000e+00) [K]
    Coulombic Real/kʙ       0.000000e+00 ( 0.000000e+00 +/- 0.000000e+00) [K]
    Coulombic Fourier/kʙ    0.000000e+00 ( 0.000000e+00 +/- 0.000000e+00) [K]
Molecule-molecule
    Van der Waals/kʙ       -2.747946e+05 (-2.764049e+05 +/- 0.000000e+00) [K]
    Van der Waals (Tail)/kʙ-1.171864e+04 (-1.183046e+04 +/- 0.000000e+00) [K]
    Coulombic Real/kʙ      -7.237777e+04 (-7.953747e+04 +/- 0.000000e+00) [K]
    Coulombic Fourier/kʙ   -1.986533e+04 (-1.977454e+04 +/- 0.000000e+00) [K]
    Molecule Intra/kʙ       0.000000e+00 ( 0.000000e+00 +/- 0.000000e+00) [K]

Current cycle: 300 out of 5000
===============================================================================

Box:      25.87126   0.00000   0.00000  Average:  25.75127   0.00000   0.00000
           0.00000  25.87126   0.00000             0.00000  25.75127   0.00000
           0.00000   0.00000  25.87126             0.00000   0.00000  25.75127
Lengths:  25.87126  25.87126  25.87126  Average:  25.75127  25.75127  25.75127
Angles:   90.00000  90.00000  90.00000  Average:  90.00000  90.00000  90.00000
Rectangular boundary conditions

net charge:   0.00000000

component 0 (CO2) lambda:  0 occupancy:  1 (1.000000)
    net charge:   0.00000000 [e]

Amount of molecules per component :
-------------------------------------------------------------------------------
Component 0 (CO2)
    molecules:      2.500000e+02 molecules  (2.500000e+02 +/- 0.000000e+00)
    number density: 1.443734e-02 molec./A^3 (1.464240e-02 +/- 0.000000e+00)
    density:        1.054817e+03 kg/m^3     (1.069799e+03 +/- 0.000000e+00)

Average pressure tensor: 
-------------------------------------------------------------------------------
 4.1806e+01  4.5501e+01  1.7437e+02 +/- 0.0000e+00 0.0000e+00 0.0000e+00 [bar]
 4.5501e+01  7.7023e+01 -7.4285e+01 +/- 0.0000e+00 0.0000e+00 0.0000e+00 [bar]
 1.7437e+02 -7.4285e+01 -2.7505e+01 +/- 0.0000e+00 0.0000e+00 0.0000e+00 [bar]
Ideal-gas pressure:   5.054007e+02 +/ 0.000000e+00 [bar]
Excess pressure:     -4.749595e+02 +/ 0.000000e+00 [bar]
Pressure:             3.044125e+01 +/ 0.000000e+00 [bar]

Total potential energy/kʙ  -3.710049e+05 (-3.829572e+05 +/- 0.000000e+00) [K]
-------------------------------------------------------------------------------
ExternalField-molecule
    Van der Waals/kʙ        0.000000e+00 ( 0.000000e+00 +/- 0.000000e+00) [K]
Framework-molecule
    Van der Waals/kʙ        0.000000e+00 ( 0.000000e+00 +/- 0.000000e+00) [K]
    Van der Waals (Tail)/kʙ 0.000000e+00 ( 0.000000e+00 +/- 0.000000e+00) [K]
    Coulombic Real/kʙ       0.000000e+00 ( 0.000000e+00 +/- 0.000000e+00) [K]
    Coulombic Fourier/kʙ    0.000000e+00 ( 0.000000e+00 +/- 0.000000e+00) [K]
Molecule-molecule
    Van der Waals/kʙ       -2.670711e+05 (-2.743206e+05 +/- 0.000000e+00) [K]
    Van der Waals (Tail)/kʙ-1.158073e+04 (-1.174385e+04 +/- 0.000000e+00) [K]
    Coulombic Real/kʙ      -7.406250e+04 (-7.741176e+04 +/- 0.000000e+00) [K]
    Coulombic Fourier/kʙ   -1.829059e+04 (-1.948105e+04 +/- 0.000000e+00) [K]
    Molecule Intra/kʙ       0.000000e+00 ( 0.000000e+00 +/- 0.000000e+00) [K]

Current cycle: 400 out of 5000
===============================================================================

Box:      26.13155   0.00000   0.00000  Average:  25.84790   0.00000   0.00000
           0.00000  26.13155   0.00000             0.00000  25.84790   0.00000
           0.00000   0.00000  26.13155             0.00000   0.00000  25.84790
Lengths:  26.13155  26.13155  26.13155  Average:  25.84790  25.84790  25.84790
Angles:   90.00000  90.00000  90.00000  Average:  90.00000  90.00000  90.00000
Rectangular boundary conditions

net charge:   0.00000000

component 0 (CO2) lambda:  0 occupancy:  1 (1.000000)
    net charge:   0.00000000 [e]

Amount of molecules per component :
-------------------------------------------------------------------------------
Component 0 (CO2)
    molecules:      2.500000e+02 molecules  (2.500000e+02 +/- 0.000000e+00)
    number density: 1.401020e-02 molec./A^3 (1.448247e-02 +/- 0.000000e+00)
    density:        1.023609e+03 kg/m^3     (1.058114e+03 +/- 0.000000e+00)

Average pressure tensor: 
-------------------------------------------------------------------------------
 6.2516e+01 -7.1454e+00  1.7603e+02 +/- 0.0000e+00 0.0000e+00 0.0000e+00 [bar]
-7.1454e+00  9.9590e+01 -9.3169e+01 +/- 0.0000e+00 0.0000e+00 0.0000e+00 [bar]
 1.7603e+02 -9.3169e+01  1.2846e+01 +/- 0.0000e+00 0.0000e+00 0.0000e+00 [bar]
Ideal-gas pressure:   4.998808e+02 +/ 0.000000e+00 [bar]
Excess pressure:     -4.415635e+02 +/ 0.000000e+00 [bar]
Pressure:             5.831727e+01 +/ 0.000000e+00 [bar]

Total potential energy/kʙ  -3.722449e+05 (-3.784914e+05 +/- 0.000000e+00) [K]
-------------------------------------------------------------------------------
ExternalField-molecule
    Van der Waals/kʙ        0.000000e+00 ( 0.000000e+00 +/- 0.000000e+00) [K]
Framework-molecule
    Van der Waals/kʙ        0.000000e+00 ( 0.000000e+00 +/- 0.000000e+00) [K]
    Van der Waals (Tail)/kʙ 0.000000e+00 ( 0.000000e+00 +/- 0.000000e+00) [K]
    Coulombic Real/kʙ       0.000000e+00 ( 0.000000e+00 +/- 0.000000e+00) [K]
    Coulombic Fourier/kʙ    0.000000e+00 ( 0.000000e+00 +/- 0.000000e+00) [K]
Molecule-molecule
    Van der Waals/kʙ       -2.656722e+05 (-2.711220e+05 +/- 0.000000e+00) [K]
    Van der Waals (Tail)/kʙ-1.123810e+04 (-1.162260e+04 +/- 0.000000e+00) [K]
    Coulombic Real/kʙ      -7.573662e+04 (-7.646685e+04 +/- 0.000000e+00) [K]
    Coulombic Fourier/kʙ   -1.959796e+04 (-1.927992e+04 +/- 0.000000e+00) [K]
    Molecule Intra/kʙ       0.000000e+00 ( 0.000000e+00 +/- 0.000000e+00) [K]

Current cycle: 500 out of 5000
===============================================================================

Box:      26.31549   0.00000   0.00000  Average:  25.90806   0.00000   0.00000
           0.00000  26.31549   0.00000             0.00000  25.90806   0.00000
           0.00000   0.00000  26.31549             0.00000   0.00000  25.90806
Lengths:  26.31549  26.31549  26.31549  Average:  25.90806  25.90806  25.90806
Angles:   90.00000  90.00000  90.00000  Average:  90.00000  90.00000  90.00000
Rectangular boundary conditions

net charge:   0.00000000

component 0 (CO2) lambda:  0 occupancy:  1 (1.000000)
    net charge:   0.00000000 [e]

Amount of molecules per component :
-------------------------------------------------------------------------------
Component 0 (CO2)
    molecules:      2.500000e+02 molecules  (2.500000e+02 +/- 0.000000e+00)
    number density: 1.371847e-02 molec./A^3 (1.438292e-02 +/- 0.000000e+00)
    density:        1.002295e+03 kg/m^3     (1.050841e+03 +/- 0.000000e+00)

Average pressure tensor: 
-------------------------------------------------------------------------------
 2.0776e+01 -4.4581e+00  1.4230e+02 +/- 0.0000e+00 0.0000e+00 0.0000e+00 [bar]
-4.4581e+00  1.0015e+02 -7.2921e+01 +/- 0.0000e+00 0.0000e+00 0.0000e+00 [bar]
 1.4230e+02 -7.2921e+01  2.6592e+01 +/- 0.0000e+00 0.0000e+00 0.0000e+00 [bar]
Ideal-gas pressure:   4.964446e+02 +/ 0.000000e+00 [bar]
Excess pressure:     -4.472733e+02 +/ 0.000000e+00 [bar]
Pressure:             4.917130e+01 +/ 0.000000e+00 [bar]

Total potential energy/kʙ  -3.640075e+05 (-3.761457e+05 +/- 0.000000e+00) [K]
-------------------------------------------------------------------------------
ExternalField-molecule
    Van der Waals/kʙ        0.000000e+00 ( 0.000000e+00 +/- 0.000000e+00) [K]
Framework-molecule
    Van der Waals/kʙ        0.000000e+00 ( 0.000000e+00 +/- 0.000000e+00) [K]
    Van der Waals (Tail)/kʙ 0.000000e+00 ( 0.000000e+00 +/- 0.000000e+00) [K]
    Coulombic Real/kʙ       0.000000e+00 ( 0.000000e+00 +/- 0.000000e+00) [K]
    Coulombic Fourier/kʙ    0.000000e+00 ( 0.000000e+00 +/- 0.000000e+00) [K]
Molecule-molecule
    Van der Waals/kʙ       -2.663836e+05 (-2.692649e+05 +/- 0.000000e+00) [K]
    Van der Waals (Tail)/kʙ-1.100410e+04 (-1.153872e+04 +/- 0.000000e+00) [K]
    Coulombic Real/kʙ      -6.805466e+04 (-7.613625e+04 +/- 0.000000e+00) [K]
    Coulombic Fourier/kʙ   -1.856512e+04 (-1.920591e+04 +/- 0.000000e+00) [K]
    Molecule Intra/kʙ       0.000000e+00 ( 0.000000e+00 +/- 0.000000e+00) [K]

Current cycle: 600 out of 5000
===============================================================================

Box:      25.79803   0.00000   0.00000  Average:  25.91553   0.00000   0.00000
           0.00000  25.79803   0.00000             0.00000  25.91553   0.00000
           0.00000   0.00000  25.79803             0.00000   0.00000  25.91553
Lengths:  25.79803  25.79803  25.79803  Average:  25.91553  25.91553  25.91553
Angles:   90.00000  90.00000  90.00000  Average:  90.00000  90.00000  90.00000
Rectangular boundary conditions

net charge:   0.00000000

component 0 (CO2) lambda:  0 occupancy:  1 (1.000000)
    net charge:   0.00000000 [e]

Amount of molecules per component :
-------------------------------------------------------------------------------
Component 0 (CO2)
    molecules:      2.500000e+02 molecules  (2.500000e+02 +/- 0.000000e+00)
    number density: 1.456063e-02 molec./A^3 (1.436975e-02 +/- 0.000000e+00)
    density:        1.063825e+03 kg/m^3     (1.049879e+03 +/- 0.000000e+00)

Average pressure tensor: 
-------------------------------------------------------------------------------
 4.4879e+01 -2.0355e+00  1.1353e+02 +/- 0.0000e+00 0.0000e+00 0.0000e+00 [bar]
-2.0355e+00  9.1227e+01 -4.7214e+01 +/- 0.0000e+00 0.0000e+00 0.0000e+00 [bar]
 1.1353e+02 -4.7214e+01  2.6664e+00 +/- 0.0000e+00 0.0000e+00 0.0000e+00 [bar]
Ideal-gas pressure:   4.959900e+02 +/ 0.000000e+00 [bar]
Excess pressure:     -4.497324e+02 +/ 0.000000e+00 [bar]
Pressure:             4.625764e+01 +/ 0.000000e+00 [bar]

Total potential energy/kʙ  -3.812420e+05 (-3.752096e+05 +/- 0.000000e+00) [K]
-------------------------------------------------------------------------------
ExternalField-molecule
    Van der Waals/kʙ        0.000000e+00 ( 0.000000e+00 +/- 0.000000e+00) [K]
Framework-molecule
    Van der Waals/kʙ        0.000000e+00 ( 0.000000e+00 +/- 0.000000e+00) [K]
    Van der Waals (Tail)/kʙ 0.000000e+00 ( 0.000000e+00 +/- 0.000000e+00) [K]
    Coulombic Real/kʙ       0.000000e+00 ( 0.000000e+00 +/- 0.000000e+00) [K]
    Coulombic Fourier/kʙ    0.000000e+00 ( 0.000000e+00 +/- 0.000000e+00) [K]
Molecule-molecule
    Van der Waals/kʙ       -2.701771e+05 (-2.688080e+05 +/- 0.000000e+00) [K]
    Van der Waals (Tail)/kʙ-1.167962e+04 (-1.153104e+04 +/- 0.000000e+00) [K]
    Coulombic Real/kʙ      -8.012290e+04 (-7.583254e+04 +/- 0.000000e+00) [K]
    Coulombic Fourier/kʙ   -1.926229e+04 (-1.903804e+04 +/- 0.000000e+00) [K]
    Molecule Intra/kʙ       0.000000e+00 ( 0.000000e+00 +/- 0.000000e+00) [K]

Current cycle: 700 out of 5000
===============================================================================

Box:      26.12371   0.00000   0.00000  Average:  25.91902   0.00000   0.00000
           0.00000  26.12371   0.00000             0.00000  25.91902   0.00000
           0.00000   0.00000  26.12371             0.00000   0.00000  25.91902
Lengths:  26.12371  26.12371  26.12371  Average:  25.91902  25.91902  25.91902
Angles:   90.00000  90.00000  90.00000  Average:  90.00000  90.00000  90.00000
Rectangular boundary conditions

net charge:   0.00000000

component 0 (CO2) lambda:  0 occupancy:  1 (1.000000)
    net charge:   0.00000000 [e]

Amount of molecules per component :
-------------------------------------------------------------------------------
Component 0 (CO2)
    molecules:      2.500000e+02 molecules  (2.500000e+02 +/- 0.000000e+00)
    number density: 1.402282e-02 molec./A^3 (1.436347e-02 +/- 0.000000e+00)
    density:        1.024531e+03 kg/m^3     (1.049420e+03 +/- 0.000000e+00)

Average pressure tensor: 
-------------------------------------------------------------------------------
 6.4671e+00 -1.4320e+01  8.3306e+01 +/- 0.0000e+00 0.0000e+00 0.0000e+00 [bar]
-1.4320e+01  1.0036e+02 -4.7439e+01 +/- 0.0000e+00 0.0000e+00 0.0000e+00 [bar]
 8.3306e+01 -4.7439e+01  1.8391e+00 +/- 0.0000e+00 0.0000e+00 0.0000e+00 [bar]
Ideal-gas pressure:   4.957732e+02 +/ 0.000000e+00 [bar]
Excess pressure:     -4.595495e+02 +/ 0.000000e+00 [bar]
Pressure:             3.622372e+01 +/ 0.000000e+00 [bar]

Total potential energy/kʙ  -3.603577e+05 (-3.746427e+05 +/- 0.000000e+00) [K]
-------------------------------------------------------------------------------
ExternalField-molecule
    Van der Waals/kʙ        0.000000e+00 ( 0.000000e+00 +/- 0.000000e+00) [K]
Framework-molecule
    Van der Waals/kʙ        0.000000e+00 ( 0.000000e+00 +/- 0.000000e+00) [K]
    Van der Waals (Tail)/kʙ 0.000000e+00 ( 0.000000e+00 +/- 0.000000e+00) [K]
    Coulombic Real/kʙ       0.000000e+00 ( 0.000000e+00 +/- 0.000000e+00) [K]
    Coulombic Fourier/kʙ    0.000000e+00 ( 0.000000e+00 +/- 0.000000e+00) [K]
Molecule-molecule
    Van der Waals/kʙ       -2.569238e+05 (-2.685778e+05 +/- 0.000000e+00) [K]
    Van der Waals (Tail)/kʙ-1.124822e+04 (-1.151524e+04 +/- 0.000000e+00) [K]
    Coulombic Real/kʙ      -7.321618e+04 (-7.555440e+04 +/- 0.000000e+00) [K]
    Coulombic Fourier/kʙ   -1.896948e+04 (-1.899526e+04 +/- 0.000000e+00) [K]
    Molecule Intra/kʙ       0.000000e+00 ( 0.000000e+00 +/- 0.000000e+00) [K]

Current cycle: 800 out of 5000
===============================================================================

Box:      25.70653   0.00000   0.00000  Average:  25.92752   0.00000   0.00000
           0.00000  25.70653   0.00000             0.00000  25.92752   0.00000
           0.00000   0.00000  25.70653             0.00000   0.00000  25.92752
Lengths:  25.70653  25.70653  25.70653  Average:  25.92752  25.92752  25.92752
Angles:   90.00000  90.00000  90.00000  Average:  90.00000  90.00000  90.00000
Rectangular boundary conditions

net charge:   0.00000000

component 0 (CO2) lambda:  0 occupancy:  1 (1.000000)
    net charge:   0.00000000 [e]

Amount of molecules per component :
-------------------------------------------------------------------------------
Component 0 (CO2)
    molecules:      2.500000e+02 molecules  (2.500000e+02 +/- 0.000000e+00)
    number density: 1.471668e-02 molec./A^3 (1.434893e-02 +/- 0.000000e+00)
    density:        1.075225e+03 kg/m^3     (1.048357e+03 +/- 0.000000e+00)

Average pressure tensor: 
-------------------------------------------------------------------------------
 9.0027e+00 -6.4412e+00  6.8415e+01 +/- 0.0000e+00 0.0000e+00 0.0000e+00 [bar]
-6.4412e+00  9.2587e+01 -4.1305e+01 +/- 0.0000e+00 0.0000e+00 0.0000e+00 [bar]
 6.8415e+01 -4.1305e+01  1.1097e+01 +/- 0.0000e+00 0.0000e+00 0.0000e+00 [bar]
Ideal-gas pressure:   4.952713e+02 +/ 0.000000e+00 [bar]
Excess pressure:     -4.577091e+02 +/ 0.000000e+00 [bar]
Pressure:             3.756214e+01 +/ 0.000000e+00 [bar]

Total potential energy/kʙ  -3.840041e+05 (-3.742373e+05 +/- 0.000000e+00) [K]
-------------------------------------------------------------------------------
ExternalField-molecule
    Van der Waals/kʙ        0.000000e+00 ( 0.000000e+00 +/- 0.000000e+00) [K]
Framework-molecule
    Van der Waals/kʙ        0.000000e+00 ( 0.000000e+00 +/- 0.000000e+00) [K]
    Van der Waals (Tail)/kʙ 0.000000e+00 ( 0.000000e+00 +/- 0.000000e+00) [K]
    Coulombic Real/kʙ       0.000000e+00 ( 0.000000e+00 +/- 0.000000e+00) [K]
    Coulombic Fourier/kʙ    0.000000e+00 ( 0.000000e+00 +/- 0.000000e+00) [K]
Molecule-molecule
    Van der Waals/kʙ       -2.776720e+05 (-2.684470e+05 +/- 0.000000e+00) [K]
    Van der Waals (Tail)/kʙ-1.180479e+04 (-1.150609e+04 +/- 0.000000e+00) [K]
    Coulombic Real/kʙ      -7.610547e+04 (-7.534535e+04 +/- 0.000000e+00) [K]
    Coulombic Fourier/kʙ   -1.842181e+04 (-1.893882e+04 +/- 0.000000e+00) [K]
    Molecule Intra/kʙ       0.000000e+00 ( 0.000000e+00 +/- 0.000000e+00) [K]

Current cycle: 900 out of 5000
===============================================================================

Box:      25.73244   0.00000   0.00000  Average:  25.91169   0.00000   0.00000
           0.00000  25.73244   0.00000             0.00000  25.91169   0.00000
           0.00000   0.00000  25.73244             0.00000   0.00000  25.91169
Lengths:  25.73244  25.73244  25.73244  Average:  25.91169  25.91169  25.91169
Angles:   90.00000  90.00000  90.00000  Average:  90.00000  90.00000  90.00000
Rectangular boundary conditions

net charge:   0.00000000

component 0 (CO2) lambda:  0 occupancy:  1 (1.000000)
    net charge:   0.00000000 [e]

Amount of molecules per component :
-------------------------------------------------------------------------------
Component 0 (CO2)
    molecules:      2.500000e+02 molecules  (2.500000e+02 +/- 0.000000e+00)
    number density: 1.467226e-02 molec./A^3 (1.437502e-02 +/- 0.000000e+00)
    density:        1.071980e+03 kg/m^3     (1.050264e+03 +/- 0.000000e+00)

Average pressure tensor: 
-------------------------------------------------------------------------------
 2.7722e+01 -1.6448e+00  7.0889e+01 +/- 0.0000e+00 0.0000e+00 0.0000e+00 [bar]
-1.6448e+00  9.2451e+01 -3.8224e+01 +/- 0.0000e+00 0.0000e+00 0.0000e+00 [bar]
 7.0889e+01 -3.8224e+01  1.5675e+01 +/- 0.0000e+00 0.0000e+00 0.0000e+00 [bar]
Ideal-gas pressure:   4.961721e+02 +/ 0.000000e+00 [bar]
Excess pressure:     -4.508892e+02 +/ 0.000000e+00 [bar]
Pressure:             4.528287e+01 +/ 0.000000e+00 [bar]

Total potential energy/kʙ  -3.814772e+05 (-3.750101e+05 +/- 0.000000e+00) [K]
-------------------------------------------------------------------------------
ExternalField-molecule
    Van der Waals/kʙ        0.000000e+00 ( 0.000000e+00 +/- 0.000000e+00) [K]
Framework-molecule
    Van der Waals/kʙ        0.000000e+00 ( 0.000000e+00 +/- 0.000000e+00) [K]
    Van der Waals (Tail)/kʙ 0.000000e+00 ( 0.000000e+00 +/- 0.000000e+00) [K]
    Coulombic Real/kʙ       0.000000e+00 ( 0.000000e+00 +/- 0.000000e+00) [K]
    Coulombic Fourier/kʙ    0.000000e+00 ( 0.000000e+00 +/- 0.000000e+00) [K]
Molecule-molecule
    Van der Waals/kʙ       -2.697215e+05 (-2.687957e+05 +/- 0.000000e+00) [K]
    Van der Waals (Tail)/kʙ-1.176916e+04 (-1.152761e+04 +/- 0.000000e+00) [K]
    Coulombic Real/kʙ      -8.027453e+04 (-7.568371e+04 +/- 0.000000e+00) [K]
    Coulombic Fourier/kʙ   -1.971205e+04 (-1.900305e+04 +/- 0.000000e+00) [K]
    Molecule Intra/kʙ       0.000000e+00 ( 0.000000e+00 +/- 0.000000e+00) [K]

Current cycle: 1000 out of 5000
===============================================================================

Box:      25.84799   0.00000   0.00000  Average:  25.90364   0.00000   0.00000
           0.00000  25.84799   0.00000             0.00000  25.90364   0.00000
           0.00000   0.00000  25.84799             0.00000   0.00000  25.90364
Lengths:  25.84799  25.84799  25.84799  Average:  25.90364  25.90364  25.90364
Angles:   90.00000  90.00000  90.00000  Average:  90.00000  90.00000  90.00000
Rectangular boundary conditions

net charge:   0.00000000

component 0 (CO2) lambda:  0 occupancy:  1 (1.000000)
    net charge:   0.00000000 [e]

Amount of molecules per component :
-------------------------------------------------------------------------------
Component 0 (CO2)
    molecules:      2.500000e+02 molecules  (2.500000e+02 +/- 0.000000e+00)
    number density: 1.447638e-02 molec./A^3 (1.438823e-02 +/- 0.000000e+00)
    density:        1.057669e+03 kg/m^3     (1.051229e+03 +/- 0.000000e+00)

Average pressure tensor: 
-------------------------------------------------------------------------------
 2.1456e+01 -9.1441e-01  7.0590e+01 +/- 0.0000e+00 0.0000e+00 0.0000e+00 [bar]
-9.1441e-01  1.0325e+02 -3.1782e+01 +/- 0.0000e+00 0.0000e+00 0.0000e+00 [bar]
 7.0590e+01 -3.1782e+01  1.3203e+01 +/- 0.0000e+00 0.0000e+00 0.0000e+00 [bar]
Ideal-gas pressure:   4.966280e+02 +/ 0.000000e+00 [bar]
Excess pressure:     -4.506580e+02 +/ 0.000000e+00 [bar]
Pressure:             4.597000e+01 +/ 0.000000e+00 [bar]

Total potential energy/kʙ  -3.732218e+05 (-3.758916e+05 +/- 0.000000e+00) [K]
-------------------------------------------------------------------------------
ExternalField-molecule
    Van der Waals/kʙ        0.000000e+00 ( 0.000000e+00 +/- 0.000000e+00) [K]
Framework-molecule
    Van der Waals/kʙ        0.000000e+00 ( 0.000000e+00 +/- 0.000000e+00) [K]
    Van der Waals (Tail)/kʙ 0.000000e+00 ( 0.000000e+00 +/- 0.000000e+00) [K]
    Coulombic Real/kʙ       0.000000e+00 ( 0.000000e+00 +/- 0.000000e+00) [K]
    Coulombic Fourier/kʙ    0.000000e+00 ( 0.000000e+00 +/- 0.000000e+00) [K]
Molecule-molecule
    Van der Waals/kʙ       -2.637638e+05 (-2.691656e+05 +/- 0.000000e+00) [K]
    Van der Waals (Tail)/kʙ-1.161204e+04 (-1.153872e+04 +/- 0.000000e+00) [K]
    Coulombic Real/kʙ      -7.981410e+04 (-7.614962e+04 +/- 0.000000e+00) [K]
    Coulombic Fourier/kʙ   -1.803189e+04 (-1.903769e+04 +/- 0.000000e+00) [K]
    Molecule Intra/kʙ       0.000000e+00 ( 0.000000e+00 +/- 0.000000e+00) [K]

Current cycle: 1100 out of 5000
===============================================================================

Box:      25.92373   0.00000   0.00000  Average:  25.90717   0.00000   0.00000
           0.00000  25.92373   0.00000             0.00000  25.90717   0.00000
           0.00000   0.00000  25.92373             0.00000   0.00000  25.90717
Lengths:  25.92373  25.92373  25.92373  Average:  25.90717  25.90717  25.90717
Angles:   90.00000  90.00000  90.00000  Average:  90.00000  90.00000  90.00000
Rectangular boundary conditions

net charge:   0.00000000

component 0 (CO2) lambda:  0 occupancy:  1 (1.000000)
    net charge:   0.00000000 [e]

Amount of molecules per component :
-------------------------------------------------------------------------------
Component 0 (CO2)
    molecules:      2.500000e+02 molecules  (2.500000e+02 +/- 0.000000e+00)
    number density: 1.434986e-02 molec./A^3 (1.438206e-02 +/- 0.000000e+00)
    density:        1.048425e+03 kg/m^3     (1.050778e+03 +/- 0.000000e+00)

Average pressure tensor: 
-------------------------------------------------------------------------------
 1.9535e+01  1.1550e+00  6.6153e+01 +/- 0.0000e+00 0.0000e+00 0.0000e+00 [bar]
 1.1550e+00  1.1014e+02 -3.0164e+01 +/- 0.0000e+00 0.0000e+00 0.0000e+00 [bar]
 6.6153e+01 -3.0164e+01  1.2414e+00 +/- 0.0000e+00 0.0000e+00 0.0000e+00 [bar]
Ideal-gas pressure:   4.964149e+02 +/ 0.000000e+00 [bar]
Excess pressure:     -4.527761e+02 +/ 0.000000e+00 [bar]
Pressure:             4.363880e+01 +/ 0.000000e+00 [bar]

Total potential energy/kʙ  -3.805165e+05 (-3.758504e+05 +/- 0.000000e+00) [K]
-------------------------------------------------------------------------------
ExternalField-molecule
    Van der Waals/kʙ        0.000000e+00 ( 0.000000e+00 +/- 0.000000e+00) [K]
Framework-molecule
    Van der Waals/kʙ        0.000000e+00 ( 0.000000e+00 +/- 0.000000e+00) [K]
    Van der Waals (Tail)/kʙ 0.000000e+00 ( 0.000000e+00 +/- 0.000000e+00) [K]
    Coulombic Real/kʙ       0.000000e+00 ( 0.000000e+00 +/- 0.000000e+00) [K]
    Coulombic Fourier/kʙ    0.000000e+00 ( 0.000000e+00 +/- 0.000000e+00) [K]
Molecule-molecule
    Van der Waals/kʙ       -2.726961e+05 (-2.692809e+05 +/- 0.000000e+00) [K]
    Van der Waals (Tail)/kʙ-1.151056e+04 (-1.152874e+04 +/- 0.000000e+00) [K]
    Coulombic Real/kʙ      -7.737589e+04 (-7.602698e+04 +/- 0.000000e+00) [K]
    Coulombic Fourier/kʙ   -1.893390e+04 (-1.901377e+04 +/- 0.000000e+00) [K]
    Molecule Intra/kʙ       0.000000e+00 ( 0.000000e+00 +/- 0.000000e+00) [K]

Current cycle: 1200 out of 5000
===============================================================================

Box:      26.18810   0.00000   0.00000  Average:  25.91125   0.00000   0.00000
           0.00000  26.18810   0.00000             0.00000  25.91125   0.00000
           0.00000   0.00000  26.18810             0.00000   0.00000  25.91125
Lengths:  26.18810  26.18810  26.18810  Average:  25.91125  25.91125  25.91125
Angles:   90.00000  90.00000  90.00000  Average:  90.00000  90.00000  90.00000
Rectangular boundary conditions

net charge:   0.00000000

component 0 (CO2) lambda:  0 occupancy:  1 (1.000000)
    net charge:   0.00000000 [e]

Amount of molecules per component :
-------------------------------------------------------------------------------
Component 0 (CO2)
    molecules:      2.500000e+02 molecules  (2.500000e+02 +/- 0.000000e+00)
    number density: 1.391964e-02 molec./A^3 (1.437520e-02 +/- 0.000000e+00)
    density:        1.016993e+03 kg/m^3     (1.050276e+03 +/- 0.000000e+00)

Average pressure tensor: 
-------------------------------------------------------------------------------
 3.1438e+01 -2.2018e+00  5.8128e+01 +/- 0.0000e+00 0.0000e+00 0.0000e+00 [bar]
-2.2018e+00  1.0578e+02 -2.9373e+01 +/- 0.0000e+00 0.0000e+00 0.0000e+00 [bar]
 5.8128e+01 -2.9373e+01 -4.3094e+00 +/- 0.0000e+00 0.0000e+00 0.0000e+00 [bar]
Ideal-gas pressure:   4.961780e+02 +/ 0.000000e+00 [bar]
Excess pressure:     -4.518754e+02 +/ 0.000000e+00 [bar]
Pressure:             4.430254e+01 +/ 0.000000e+00 [bar]

Total potential energy/kʙ  -3.739689e+05 (-3.759866e+05 +/- 0.000000e+00) [K]
-------------------------------------------------------------------------------
ExternalField-molecule
    Van der Waals/kʙ        0.000000e+00 ( 0.000000e+00 +/- 0.000000e+00) [K]
Framework-molecule
    Van der Waals/kʙ        0.000000e+00 ( 0.000000e+00 +/- 0.000000e+00) [K]
    Van der Waals (Tail)/kʙ 0.000000e+00 ( 0.000000e+00 +/- 0.000000e+00) [K]
    Coulombic Real/kʙ       0.000000e+00 ( 0.000000e+00 +/- 0.000000e+00) [K]
    Coulombic Fourier/kʙ    0.000000e+00 ( 0.000000e+00 +/- 0.000000e+00) [K]
Molecule-molecule
    Van der Waals/kʙ       -2.656064e+05 (-2.692474e+05 +/- 0.000000e+00) [K]
    Van der Waals (Tail)/kʙ-1.116546e+04 (-1.152111e+04 +/- 0.000000e+00) [K]
    Coulombic Real/kʙ      -7.806482e+04 (-7.619216e+04 +/- 0.000000e+00) [K]
    Coulombic Fourier/kʙ   -1.913221e+04 (-1.902598e+04 +/- 0.000000e+00) [K]
    Molecule Intra/kʙ       0.000000e+00 ( 0.000000e+00 +/- 0.000000e+00) [K]

Current cycle: 1300 out of 5000
===============================================================================

Box:      25.81968   0.00000   0.00000  Average:  25.91079   0.00000   0.00000
           0.00000  25.81968   0.00000             0.00000  25.91079   0.00000
           0.00000   0.00000  25.81968             0.00000   0.00000  25.91079
Lengths:  25.81968  25.81968  25.81968  Average:  25.91079  25.91079  25.91079
Angles:   90.00000  90.00000  90.00000  Average:  90.00000  90.00000  90.00000
Rectangular boundary conditions

net charge:   0.00000000

component 0 (CO2) lambda:  0 occupancy:  1 (1.000000)
    net charge:   0.00000000 [e]

Amount of molecules per component :
-------------------------------------------------------------------------------
Component 0 (CO2)
    molecules:      2.500000e+02 molecules  (2.500000e+02 +/- 0.000000e+00)
    number density: 1.452405e-02 molec./A^3 (1.437578e-02 +/- 0.000000e+00)
    density:        1.061152e+03 kg/m^3     (1.050319e+03 +/- 0.000000e+00)

Average pressure tensor: 
-------------------------------------------------------------------------------
 3.0864e+01  4.7907e+00  5.9380e+01 +/- 0.0000e+00 0.0000e+00 0.0000e+00 [bar]
 4.7907e+00  8.8087e+01 -2.2805e+01 +/- 0.0000e+00 0.0000e+00 0.0000e+00 [bar]
 5.9380e+01 -2.2805e+01  1.2708e+00 +/- 0.0000e+00 0.0000e+00 0.0000e+00 [bar]
Ideal-gas pressure:   4.961981e+02 +/ 0.000000e+00 [bar]
Excess pressure:     -4.561241e+02 +/ 0.000000e+00 [bar]
Pressure:             4.007399e+01 +/ 0.000000e+00 [bar]

Total potential energy/kʙ  -3.827607e+05 (-3.763397e+05 +/- 0.000000e+00) [K]
-------------------------------------------------------------------------------
ExternalField-molecule
    Van der Waals/kʙ        0.000000e+00 ( 0.000000e+00 +/- 0.000000e+00) [K]
Framework-molecule
    Van der Waals/kʙ        0.000000e+00 ( 0.000000e+00 +/- 0.000000e+00) [K]
    Van der Waals (Tail)/kʙ 0.000000e+00 ( 0.000000e+00 +/- 0.000000e+00) [K]
    Coulombic Real/kʙ       0.000000e+00 ( 0.000000e+00 +/- 0.000000e+00) [K]
    Coulombic Fourier/kʙ    0.000000e+00 ( 0.000000e+00 +/- 0.000000e+00) [K]
Molecule-molecule
    Van der Waals/kʙ       -2.655988e+05 (-2.692385e+05 +/- 0.000000e+00) [K]
    Van der Waals (Tail)/kʙ-1.165028e+04 (-1.152102e+04 +/- 0.000000e+00) [K]
    Coulombic Real/kʙ      -8.551652e+04 (-7.654196e+04 +/- 0.000000e+00) [K]
    Coulombic Fourier/kʙ   -1.999505e+04 (-1.903819e+04 +/- 0.000000e+00) [K]
    Molecule Intra/kʙ       0.000000e+00 ( 0.000000e+00 +/- 0.000000e+00) [K]

Current cycle: 1400 out of 5000
===============================================================================

Box:      25.99879   0.00000   0.00000  Average:  25.90979   0.00000   0.00000
           0.00000  25.99879   0.00000             0.00000  25.90979   0.00000
           0.00000   0.00000  25.99879             0.00000   0.00000  25.90979
Lengths:  25.99879  25.99879  25.99879  Average:  25.90979  25.90979  25.90979
Angles:   90.00000  90.00000  90.00000  Average:  90.00000  90.00000  90.00000
Rectangular boundary conditions

net charge:   0.00000000

component 0 (CO2) lambda:  0 occupancy:  1 (1.000000)
    net charge:   0.00000000 [e]

Amount of molecules per component :
-------------------------------------------------------------------------------
Component 0 (CO2)
    molecules:      2.500000e+02 molecules  (2.500000e+02 +/- 0.000000e+00)
    number density: 1.422592e-02 molec./A^3 (1.437722e-02 +/- 0.000000e+00)
    density:        1.039370e+03 kg/m^3     (1.050424e+03 +/- 0.000000e+00)

Average pressure tensor: 
-------------------------------------------------------------------------------
 2.7453e+01  4.2582e-01  6.2842e+01 +/- 0.0000e+00 0.0000e+00 0.0000e+00 [bar]
 4.2582e-01  7.3093e+01 -2.3281e+01 +/- 0.0000e+00 0.0000e+00 0.0000e+00 [bar]
 6.2842e+01 -2.3281e+01  1.8127e+01 +/- 0.0000e+00 0.0000e+00 0.0000e+00 [bar]
Ideal-gas pressure:   4.962478e+02 +/ 0.000000e+00 [bar]
Excess pressure:     -4.566902e+02 +/ 0.000000e+00 [bar]
Pressure:             3.955753e+01 +/ 0.000000e+00 [bar]

Total potential energy/kʙ  -3.736970e+05 (-3.762170e+05 +/- 0.000000e+00) [K]
-------------------------------------------------------------------------------
ExternalField-molecule
    Van der Waals/kʙ        0.000000e+00 ( 0.000000e+00 +/- 0.000000e+00) [K]
Framework-molecule
    Van der Waals/kʙ        0.000000e+00 ( 0.000000e+00 +/- 0.000000e+00) [K]
    Van der Waals (Tail)/kʙ 0.000000e+00 ( 0.000000e+00 +/- 0.000000e+00) [K]
    Coulombic Real/kʙ       0.000000e+00 ( 0.000000e+00 +/- 0.000000e+00) [K]
    Coulombic Fourier/kʙ    0.000000e+00 ( 0.000000e+00 +/- 0.000000e+00) [K]
Molecule-molecule
    Van der Waals/kʙ       -2.708114e+05 (-2.691810e+05 +/- 0.000000e+00) [K]
    Van der Waals (Tail)/kʙ-1.141114e+04 (-1.151955e+04 +/- 0.000000e+00) [K]
    Coulombic Real/kʙ      -7.262507e+04 (-7.650610e+04 +/- 0.000000e+00) [K]
    Coulombic Fourier/kʙ   -1.884940e+04 (-1.901041e+04 +/- 0.000000e+00) [K]
    Molecule Intra/kʙ       0.000000e+00 ( 0.000000e+00 +/- 0.000000e+00) [K]

Current cycle: 1500 out of 5000
===============================================================================

Box:      25.71116   0.00000   0.00000  Average:  25.89563   0.00000   0.00000
           0.00000  25.71116   0.00000             0.00000  25.89563   0.00000
           0.00000   0.00000  25.71116             0.00000   0.00000  25.89563
Lengths:  25.71116  25.71116  25.71116  Average:  25.89563  25.89563  25.89563
Angles:   90.00000  90.00000  90.00000  Average:  90.00000  90.00000  90.00000
Rectangular boundary conditions

net charge:   0.00000000

component 0 (CO2) lambda:  0 occupancy:  1 (1.000000)
    net charge:   0.00000000 [e]

Amount of molecules per component :
-------------------------------------------------------------------------------
Component 0 (CO2)
    molecules:      2.500000e+02 molecules  (2.500000e+02 +/- 0.000000e+00)
    number density: 1.470873e-02 molec./A^3 (1.440100e-02 +/- 0.000000e+00)
    density:        1.074645e+03 kg/m^3     (1.052162e+03 +/- 0.000000e+00)

Average pressure tensor: 
-------------------------------------------------------------------------------
 1.0303e+01 -4.6229e+00  4.7838e+01 +/- 0.0000e+00 0.0000e+00 0.0000e+00 [bar]
-4.6229e+00  7.2508e+01 -2.0635e+01 +/- 0.0000e+00 0.0000e+00 0.0000e+00 [bar]
 4.7838e+01 -2.0635e+01  1.1789e+01 +/- 0.0000e+00 0.0000e+00 0.0000e+00 [bar]
Ideal-gas pressure:   4.970686e+02 +/ 0.000000e+00 [bar]
Excess pressure:     -4.655351e+02 +/ 0.000000e+00 [bar]
Pressure:             3.153354e+01 +/ 0.000000e+00 [bar]

Total potential energy/kʙ  -3.891129e+05 (-3.770815e+05 +/- 0.000000e+00) [K]
-------------------------------------------------------------------------------
ExternalField-molecule
    Van der Waals/kʙ        0.000000e+00 ( 0.000000e+00 +/- 0.000000e+00) [K]
Framework-molecule
    Van der Waals/kʙ        0.000000e+00 ( 0.000000e+00 +/- 0.000000e+00) [K]
    Van der Waals (Tail)/kʙ 0.000000e+00 ( 0.000000e+00 +/- 0.000000e+00) [K]
    Coulombic Real/kʙ       0.000000e+00 ( 0.000000e+00 +/- 0.000000e+00) [K]
    Coulombic Fourier/kʙ    0.000000e+00 ( 0.000000e+00 +/- 0.000000e+00) [K]
Molecule-molecule
    Van der Waals/kʙ       -2.752753e+05 (-2.697715e+05 +/- 0.000000e+00) [K]
    Van der Waals (Tail)/kʙ-1.179842e+04 (-1.153719e+04 +/- 0.000000e+00) [K]
    Coulombic Real/kʙ      -8.228525e+04 (-7.671495e+04 +/- 0.000000e+00) [K]
    Coulombic Fourier/kʙ   -1.975394e+04 (-1.905783e+04 +/- 0.000000e+00) [K]
    Molecule Intra/kʙ       0.000000e+00 ( 0.000000e+00 +/- 0.000000e+00) [K]

Current cycle: 1600 out of 5000
===============================================================================

Box:      25.75655   0.00000   0.00000  Average:  25.87782   0.00000   0.00000
           0.00000  25.75655   0.00000             0.00000  25.87782   0.00000
           0.00000   0.00000  25.75655             0.00000   0.00000  25.87782
Lengths:  25.75655  25.75655  25.75655  Average:  25.87782  25.87782  25.87782
Angles:   90.00000  90.00000  90.00000  Average:  90.00000  90.00000  90.00000
Rectangular boundary conditions

net charge:   0.00000000

component 0 (CO2) lambda:  0 occupancy:  1 (1.000000)
    net charge:   0.00000000 [e]

Amount of molecules per component :
-------------------------------------------------------------------------------
Component 0 (CO2)
    molecules:      2.500000e+02 molecules  (2.500000e+02 +/- 0.000000e+00)
    number density: 1.463110e-02 molec./A^3 (1.443123e-02 +/- 0.000000e+00)
    density:        1.068973e+03 kg/m^3     (1.054370e+03 +/- 0.000000e+00)

Average pressure tensor: 
-------------------------------------------------------------------------------
 1.8840e+01 -2.7515e+01  3.9235e+01 +/- 0.0000e+00 0.0000e+00 0.0000e+00 [bar]
-2.7515e+01  7.3313e+01 -1.9355e+01 +/- 0.0000e+00 0.0000e+00 0.0000e+00 [bar]
 3.9235e+01 -1.9355e+01  3.4336e+01 +/- 0.0000e+00 0.0000e+00 0.0000e+00 [bar]
Ideal-gas pressure:   4.981121e+02 +/ 0.000000e+00 [bar]
Excess pressure:     -4.559491e+02 +/ 0.000000e+00 [bar]
Pressure:             4.216299e+01 +/ 0.000000e+00 [bar]

Total potential energy/kʙ  -3.821294e+05 (-3.778816e+05 +/- 0.000000e+00) [K]
-------------------------------------------------------------------------------
ExternalField-molecule
    Van der Waals/kʙ        0.000000e+00 ( 0.000000e+00 +/- 0.000000e+00) [K]
Framework-molecule
    Van der Waals/kʙ        0.000000e+00 ( 0.000000e+00 +/- 0.000000e+00) [K]
    Van der Waals (Tail)/kʙ 0.000000e+00 ( 0.000000e+00 +/- 0.000000e+00) [K]
    Coulombic Real/kʙ       0.000000e+00 ( 0.000000e+00 +/- 0.000000e+00) [K]
    Coulombic Fourier/kʙ    0.000000e+00 ( 0.000000e+00 +/- 0.000000e+00) [K]
Molecule-molecule
    Van der Waals/kʙ       -2.743113e+05 (-2.703015e+05 +/- 0.000000e+00) [K]
    Van der Waals (Tail)/kʙ-1.173615e+04 (-1.156361e+04 +/- 0.000000e+00) [K]
    Coulombic Real/kʙ      -7.709070e+04 (-7.694169e+04 +/- 0.000000e+00) [K]
    Coulombic Fourier/kʙ   -1.899131e+04 (-1.907476e+04 +/- 0.000000e+00) [K]
    Molecule Intra/kʙ       0.000000e+00 ( 0.000000e+00 +/- 0.000000e+00) [K]

Current cycle: 1700 out of 5000
===============================================================================

Box:      25.74456   0.00000   0.00000  Average:  25.86503   0.00000   0.00000
           0.00000  25.74456   0.00000             0.00000  25.86503   0.00000
           0.00000   0.00000  25.74456             0.00000   0.00000  25.86503
Lengths:  25.74456  25.74456  25.74456  Average:  25.86503  25.86503  25.86503
Angles:   90.00000  90.00000  90.00000  Average:  90.00000  90.00000  90.00000
Rectangular boundary conditions

net charge:   0.00000000

component 0 (CO2) lambda:  0 occupancy:  1 (1.000000)
    net charge:   0.00000000 [e]

Amount of molecules per component :
-------------------------------------------------------------------------------
Component 0 (CO2)
    molecules:      2.500000e+02 molecules  (2.500000e+02 +/- 0.000000e+00)
    number density: 1.465155e-02 molec./A^3 (1.445276e-02 +/- 0.000000e+00)
    density:        1.070467e+03 kg/m^3     (1.055944e+03 +/- 0.000000e+00)

Average pressure tensor: 
-------------------------------------------------------------------------------
 2.2526e+01 -3.1236e+01  4.1958e+01 +/- 0.0000e+00 0.0000e+00 0.0000e+00 [bar]
-3.1236e+01  6.8542e+01 -3.5573e+01 +/- 0.0000e+00 0.0000e+00 0.0000e+00 [bar]
 4.1958e+01 -3.5573e+01  4.2017e+01 +/- 0.0000e+00 0.0000e+00 0.0000e+00 [bar]
Ideal-gas pressure:   4.988554e+02 +/ 0.000000e+00 [bar]
Excess pressure:     -4.544936e+02 +/ 0.000000e+00 [bar]
Pressure:             4.436174e+01 +/ 0.000000e+00 [bar]

Total potential energy/kʙ  -3.828448e+05 (-3.784851e+05 +/- 0.000000e+00) [K]
-------------------------------------------------------------------------------
ExternalField-molecule
    Van der Waals/kʙ        0.000000e+00 ( 0.000000e+00 +/- 0.000000e+00) [K]
Framework-molecule
    Van der Waals/kʙ        0.000000e+00 ( 0.000000e+00 +/- 0.000000e+00) [K]
    Van der Waals (Tail)/kʙ 0.000000e+00 ( 0.000000e+00 +/- 0.000000e+00) [K]
    Coulombic Real/kʙ       0.000000e+00 ( 0.000000e+00 +/- 0.000000e+00) [K]
    Coulombic Fourier/kʙ    0.000000e+00 ( 0.000000e+00 +/- 0.000000e+00) [K]
Molecule-molecule
    Van der Waals/kʙ       -2.749529e+05 (-2.706782e+05 +/- 0.000000e+00) [K]
    Van der Waals (Tail)/kʙ-1.175255e+04 (-1.158134e+04 +/- 0.000000e+00) [K]
    Coulombic Real/kʙ      -7.666383e+04 (-7.712244e+04 +/- 0.000000e+00) [K]
    Coulombic Fourier/kʙ   -1.947551e+04 (-1.910304e+04 +/- 0.000000e+00) [K]
    Molecule Intra/kʙ       0.000000e+00 ( 0.000000e+00 +/- 0.000000e+00) [K]

Current cycle: 1800 out of 5000
===============================================================================

Box:      26.03581   0.00000   0.00000  Average:  25.85575   0.00000   0.00000
           0.00000  26.03581   0.00000             0.00000  25.85575   0.00000
           0.00000   0.00000  26.03581             0.00000   0.00000  25.85575
Lengths:  26.03581  26.03581  26.03581  Average:  25.85575  25.85575  25.85575
Angles:   90.00000  90.00000  90.00000  Average:  90.00000  90.00000  90.00000
Rectangular boundary conditions

net charge:   0.00000000

component 0 (CO2) lambda:  0 occupancy:  1 (1.000000)
    net charge:   0.00000000 [e]

Amount of molecules per component :
-------------------------------------------------------------------------------
Component 0 (CO2)
    molecules:      2.500000e+02 molecules  (2.500000e+02 +/- 0.000000e+00)
    number density: 1.416533e-02 molec./A^3 (1.446845e-02 +/- 0.000000e+00)
    density:        1.034943e+03 kg/m^3     (1.057089e+03 +/- 0.000000e+00)

Average pressure tensor: 
-------------------------------------------------------------------------------
 3.6381e+01 -3.4994e+01  3.7747e+01 +/- 0.0000e+00 0.0000e+00 0.0000e+00 [bar]
-3.4994e+01  6.2922e+01 -3.7709e+01 +/- 0.0000e+00 0.0000e+00 0.0000e+00 [bar]
 3.7747e+01 -3.7709e+01  5.9175e+01 +/- 0.0000e+00 0.0000e+00 0.0000e+00 [bar]
Ideal-gas pressure:   4.993966e+02 +/ 0.000000e+00 [bar]
Excess pressure:     -4.465707e+02 +/ 0.000000e+00 [bar]
Pressure:             5.282593e+01 +/ 0.000000e+00 [bar]

Total potential energy/kʙ  -3.721797e+05 (-3.788435e+05 +/- 0.000000e+00) [K]
-------------------------------------------------------------------------------
ExternalField-molecule
    Van der Waals/kʙ        0.000000e+00 ( 0.000000e+00 +/- 0.000000e+00) [K]
Framework-molecule
    Van der Waals/kʙ        0.000000e+00 ( 0.000000e+00 +/- 0.000000e+00) [K]
    Van der Waals (Tail)/kʙ 0.000000e+00 ( 0.000000e+00 +/- 0.000000e+00) [K]
    Coulombic Real/kʙ       0.000000e+00 ( 0.000000e+00 +/- 0.000000e+00) [K]
    Coulombic Fourier/kʙ    0.000000e+00 ( 0.000000e+00 +/- 0.000000e+00) [K]
Molecule-molecule
    Van der Waals/kʙ       -2.619961e+05 (-2.708477e+05 +/- 0.000000e+00) [K]
    Van der Waals (Tail)/kʙ-1.136254e+04 (-1.159334e+04 +/- 0.000000e+00) [K]
    Coulombic Real/kʙ      -7.940894e+04 (-7.724967e+04 +/- 0.000000e+00) [K]
    Coulombic Fourier/kʙ   -1.941208e+04 (-1.915282e+04 +/- 0.000000e+00) [K]
    Molecule Intra/kʙ       0.000000e+00 ( 0.000000e+00 +/- 0.000000e+00) [K]

Current cycle: 1900 out of 5000
===============================================================================

Box:      26.09953   0.00000   0.00000  Average:  25.86860   0.00000   0.00000
           0.00000  26.09953   0.00000             0.00000  25.86860   0.00000
           0.00000   0.00000  26.09953             0.00000   0.00000  25.86860
Lengths:  26.09953  26.09953  26.09953  Average:  25.86860  25.86860  25.86860
Angles:   90.00000  90.00000  90.00000  Average:  90.00000  90.00000  90.00000
Rectangular boundary conditions

net charge:   0.00000000

component 0 (CO2) lambda:  0 occupancy:  1 (1.000000)
    net charge:   0.00000000 [e]

Amount of molecules per component :
-------------------------------------------------------------------------------
Component 0 (CO2)
    molecules:      2.500000e+02 molecules  (2.500000e+02 +/- 0.000000e+00)
    number density: 1.406184e-02 molec./A^3 (1.444705e-02 +/- 0.000000e+00)
    density:        1.027382e+03 kg/m^3     (1.055526e+03 +/- 0.000000e+00)

Average pressure tensor: 
-------------------------------------------------------------------------------
 3.7301e+01 -2.9187e+01  3.0593e+01 +/- 0.0000e+00 0.0000e+00 0.0000e+00 [bar]
-2.9187e+01  6.6965e+01 -3.8431e+01 +/- 0.0000e+00 0.0000e+00 0.0000e+00 [bar]
 3.0593e+01 -3.8431e+01  6.1919e+01 +/- 0.0000e+00 0.0000e+00 0.0000e+00 [bar]
Ideal-gas pressure:   4.986582e+02 +/ 0.000000e+00 [bar]
Excess pressure:     -4.432632e+02 +/ 0.000000e+00 [bar]
Pressure:             5.539498e+01 +/ 0.000000e+00 [bar]

Total potential energy/kʙ  -3.703669e+05 (-3.782701e+05 +/- 0.000000e+00) [K]
-------------------------------------------------------------------------------
ExternalField-molecule
    Van der Waals/kʙ        0.000000e+00 ( 0.000000e+00 +/- 0.000000e+00) [K]
Framework-molecule
    Van der Waals/kʙ        0.000000e+00 ( 0.000000e+00 +/- 0.000000e+00) [K]
    Van der Waals (Tail)/kʙ 0.000000e+00 ( 0.000000e+00 +/- 0.000000e+00) [K]
    Coulombic Real/kʙ       0.000000e+00 ( 0.000000e+00 +/- 0.000000e+00) [K]
    Coulombic Fourier/kʙ    0.000000e+00 ( 0.000000e+00 +/- 0.000000e+00) [K]
Molecule-molecule
    Van der Waals/kʙ       -2.638848e+05 (-2.704540e+05 +/- 0.000000e+00) [K]
    Van der Waals (Tail)/kʙ-1.127952e+04 (-1.157861e+04 +/- 0.000000e+00) [K]
    Coulombic Real/kʙ      -7.673671e+04 (-7.710792e+04 +/- 0.000000e+00) [K]
    Coulombic Fourier/kʙ   -1.846588e+04 (-1.912959e+04 +/- 0.000000e+00) [K]
    Molecule Intra/kʙ       0.000000e+00 ( 0.000000e+00 +/- 0.000000e+00) [K]

Current cycle: 2000 out of 5000
===============================================================================

Box:      26.12143   0.00000   0.00000  Average:  25.88010   0.00000   0.00000
           0.00000  26.12143   0.00000             0.00000  25.88010   0.00000
           0.00000   0.00000  26.12143             0.00000   0.00000  25.88010
Lengths:  26.12143  26.12143  26.12143  Average:  25.88010  25.88010  25.88010
Angles:   90.00000  90.00000  90.00000  Average:  90.00000  90.00000  90.00000
Rectangular boundary conditions

net charge:   0.00000000

component 0 (CO2) lambda:  0 occupancy:  1 (1.000000)
    net charge:   0.00000000 [e]

Amount of molecules per component :
-------------------------------------------------------------------------------
Component 0 (CO2)
    molecules:      2.500000e+02 molecules  (2.500000e+02 +/- 0.000000e+00)
    number density: 1.402649e-02 molec./A^3 (1.442791e-02 +/- 0.000000e+00)
    density:        1.024799e+03 kg/m^3     (1.054128e+03 +/- 0.000000e+00)

Average pressure tensor: 
-------------------------------------------------------------------------------
 2.8647e+01 -2.5798e+01  2.1140e+01 +/- 0.0000e+00 0.0000e+00 0.0000e+00 [bar]
-2.5798e+01  6.5087e+01 -3.1293e+01 +/- 0.0000e+00 0.0000e+00 0.0000e+00 [bar]
 2.1140e+01 -3.1293e+01  7.1723e+01 +/- 0.0000e+00 0.0000e+00 0.0000e+00 [bar]
Ideal-gas pressure:   4.979975e+02 +/ 0.000000e+00 [bar]
Excess pressure:     -4.428451e+02 +/ 0.000000e+00 [bar]
Pressure:             5.515231e+01 +/ 0.000000e+00 [bar]

Total potential energy/kʙ  -3.678497e+05 (-3.777030e+05 +/- 0.000000e+00) [K]
-------------------------------------------------------------------------------
ExternalField-molecule
    Van der Waals/kʙ        0.000000e+00 ( 0.000000e+00 +/- 0.000000e+00) [K]
Framework-molecule
    Van der Waals/kʙ        0.000000e+00 ( 0.000000e+00 +/- 0.000000e+00) [K]
    Van der Waals (Tail)/kʙ 0.000000e+00 ( 0.000000e+00 +/- 0.000000e+00) [K]
    Coulombic Real/kʙ       0.000000e+00 ( 0.000000e+00 +/- 0.000000e+00) [K]
    Coulombic Fourier/kʙ    0.000000e+00 ( 0.000000e+00 +/- 0.000000e+00) [K]
Molecule-molecule
    Van der Waals/kʙ       -2.633099e+05 (-2.700265e+05 +/- 0.000000e+00) [K]
    Van der Waals (Tail)/kʙ-1.125117e+04 (-1.156520e+04 +/- 0.000000e+00) [K]
    Coulombic Real/kʙ      -7.411278e+04 (-7.701440e+04 +/- 0.000000e+00) [K]
    Coulombic Fourier/kʙ   -1.917586e+04 (-1.909697e+04 +/- 0.000000e+00) [K]
    Molecule Intra/kʙ       0.000000e+00 ( 0.000000e+00 +/- 0.000000e+00) [K]

Current cycle: 2100 out of 5000
===============================================================================

Box:      25.97410   0.00000   0.00000  Average:  25.88294   0.00000   0.00000
           0.00000  25.97410   0.00000             0.00000  25.88294   0.00000
           0.00000   0.00000  25.97410             0.00000   0.00000  25.88294
Lengths:  25.97410  25.97410  25.97410  Average:  25.88294  25.88294  25.88294
Angles:   90.00000  90.00000  90.00000  Average:  90.00000  90.00000  90.00000
Rectangular boundary conditions

net charge:   0.00000000

component 0 (CO2) lambda:  0 occupancy:  1 (1.000000)
    net charge:   0.00000000 [e]

Amount of molecules per component :
-------------------------------------------------------------------------------
Component 0 (CO2)
    molecules:      2.500000e+02 molecules  (2.500000e+02 +/- 0.000000e+00)
    number density: 1.426654e-02 molec./A^3 (1.442303e-02 +/- 0.000000e+00)
    density:        1.042338e+03 kg/m^3     (1.053771e+03 +/- 0.000000e+00)

Average pressure tensor: 
-------------------------------------------------------------------------------
 3.2753e+01 -2.7682e+01  1.5391e+01 +/- 0.0000e+00 0.0000e+00 0.0000e+00 [bar]
-2.7682e+01  5.8694e+01 -3.0115e+01 +/- 0.0000e+00 0.0000e+00 0.0000e+00 [bar]
 1.5391e+01 -3.0115e+01  7.0447e+01 +/- 0.0000e+00 0.0000e+00 0.0000e+00 [bar]
Ideal-gas pressure:   4.978290e+02 +/ 0.000000e+00 [bar]
Excess pressure:     -4.438642e+02 +/ 0.000000e+00 [bar]
Pressure:             5.396477e+01 +/ 0.000000e+00 [bar]

Total potential energy/kʙ  -3.594827e+05 (-3.772774e+05 +/- 0.000000e+00) [K]
-------------------------------------------------------------------------------
ExternalField-molecule
    Van der Waals/kʙ        0.000000e+00 ( 0.000000e+00 +/- 0.000000e+00) [K]
Framework-molecule
    Van der Waals/kʙ        0.000000e+00 ( 0.000000e+00 +/- 0.000000e+00) [K]
    Van der Waals (Tail)/kʙ 0.000000e+00 ( 0.000000e+00 +/- 0.000000e+00) [K]
[...]
    Coulombic Fourier/kʙ    0.000000e+00 ( 0.000000e+00 +/- 0.000000e+00) [K]
Molecule-molecule
    Van der Waals/kʙ       -2.784528e+05 (-2.740947e+05 +/- 5.454022e+03) [K]
    Van der Waals (Tail)/kʙ-1.193722e+04 (-1.171743e+04 +/- 2.033965e+02) [K]
    Coulombic Real/kʙ      -8.156641e+04 (-7.903167e+04 +/- 3.423571e+03) [K]
    Coulombic Fourier/kʙ   -2.066015e+04 (-1.935388e+04 +/- 4.936014e+02) [K]
    Molecule Intra/kʙ       0.000000e+00 ( 0.000000e+00 +/- 0.000000e+00) [K]

Current cycle: 4700 out of 5000
===============================================================================

Box:      25.43043   0.00000   0.00000  Average:  25.76443   0.00000   0.00000
           0.00000  25.43043   0.00000             0.00000  25.76443   0.00000
           0.00000   0.00000  25.43043             0.00000   0.00000  25.76443
Lengths:  25.43043  25.43043  25.43043  Average:  25.76443  25.76443  25.76443
Angles:   90.00000  90.00000  90.00000  Average:  90.00000  90.00000  90.00000
Rectangular boundary conditions

net charge:   0.00000000

component 0 (CO2) lambda:  0 occupancy:  1 (1.000000)
    net charge:   0.00000000 [e]

Amount of molecules per component :
-------------------------------------------------------------------------------
Component 0 (CO2)
    molecules:      2.500000e+02 molecules  (2.500000e+02 +/- 3.944933e-14)
    number density: 1.520124e-02 molec./A^3 (1.462355e-02 +/- 2.632456e-04)
    density:        1.110628e+03 kg/m^3     (1.068421e+03 +/- 1.923317e+01)

Average pressure tensor: 
-------------------------------------------------------------------------------
 6.1906e+01 -1.9214e+01  5.8481e+00 +/- 5.2137e+01 2.6320e+01 6.0651e+01 [bar]
-1.9214e+01  6.4357e+01 -4.4562e+00 +/- 2.6320e+01 4.3399e+01 3.2057e+01 [bar]
 5.8481e+00 -4.4562e+00  7.8442e+01 +/- 6.0651e+01 3.2057e+01 5.5614e+01 [bar]
Ideal-gas pressure:   5.047501e+02 +/ 9.086252e+00 [bar]
Excess pressure:     -4.365149e+02 +/ 1.995998e+01 [bar]
Pressure:             6.823512e+01 +/ 2.303696e+01 [bar]

Total potential energy/kʙ  -3.970167e+05 (-3.844438e+05 +/- 9.522244e+03) [K]
-------------------------------------------------------------------------------
ExternalField-molecule
    Van der Waals/kʙ        0.000000e+00 ( 0.000000e+00 +/- 0.000000e+00) [K]
Framework-molecule
    Van der Waals/kʙ        0.000000e+00 ( 0.000000e+00 +/- 0.000000e+00) [K]
    Van der Waals (Tail)/kʙ 0.000000e+00 ( 0.000000e+00 +/- 0.000000e+00) [K]
    Coulombic Real/kʙ       0.000000e+00 ( 0.000000e+00 +/- 0.000000e+00) [K]
    Coulombic Fourier/kʙ    0.000000e+00 ( 0.000000e+00 +/- 0.000000e+00) [K]
Molecule-molecule
    Van der Waals/kʙ       -2.784174e+05 (-2.742469e+05 +/- 5.547566e+03) [K]
    Van der Waals (Tail)/kʙ-1.219348e+04 (-1.172467e+04 +/- 2.106029e+02) [K]
    Coulombic Real/kʙ      -8.521256e+04 (-7.909981e+04 +/- 3.376894e+03) [K]
    Coulombic Fourier/kʙ   -2.119320e+04 (-1.937247e+04 +/- 5.068137e+02) [K]
    Molecule Intra/kʙ       0.000000e+00 ( 0.000000e+00 +/- 0.000000e+00) [K]

Current cycle: 4800 out of 5000
===============================================================================

Box:      25.76735   0.00000   0.00000  Average:  25.76372   0.00000   0.00000
           0.00000  25.76735   0.00000             0.00000  25.76372   0.00000
           0.00000   0.00000  25.76735             0.00000   0.00000  25.76372
Lengths:  25.76735  25.76735  25.76735  Average:  25.76372  25.76372  25.76372
Angles:   90.00000  90.00000  90.00000  Average:  90.00000  90.00000  90.00000
Rectangular boundary conditions

net charge:   0.00000000

component 0 (CO2) lambda:  0 occupancy:  1 (1.000000)
    net charge:   0.00000000 [e]

Amount of molecules per component :
-------------------------------------------------------------------------------
Component 0 (CO2)
    molecules:      2.500000e+02 molecules  (2.500000e+02 +/- 0.000000e+00)
    number density: 1.461271e-02 molec./A^3 (1.462467e-02 +/- 2.554378e-04)
    density:        1.067629e+03 kg/m^3     (1.068503e+03 +/- 1.866273e+01)

Average pressure tensor: 
-------------------------------------------------------------------------------
 6.6601e+01 -1.9453e+01  4.3877e+00 +/- 4.9450e+01 2.6378e+01 6.1020e+01 [bar]
-1.9453e+01  6.7552e+01 -4.3667e+00 +/- 2.6378e+01 3.7819e+01 3.1728e+01 [bar]
 4.3877e+00 -4.3667e+00  7.8230e+01 +/- 6.1020e+01 3.1728e+01 5.5006e+01 [bar]
Ideal-gas pressure:   5.047889e+02 +/ 8.816758e+00 [bar]
Excess pressure:     -4.339945e+02 +/ 1.497743e+01 [bar]
Pressure:             7.079444e+01 +/ 2.151008e+01 [bar]

Total potential energy/kʙ  -3.810398e+05 (-3.844569e+05 +/- 9.108905e+03) [K]
-------------------------------------------------------------------------------
ExternalField-molecule
    Van der Waals/kʙ        0.000000e+00 ( 0.000000e+00 +/- 0.000000e+00) [K]
Framework-molecule
    Van der Waals/kʙ        0.000000e+00 ( 0.000000e+00 +/- 0.000000e+00) [K]
    Van der Waals (Tail)/kʙ 0.000000e+00 ( 0.000000e+00 +/- 0.000000e+00) [K]
    Coulombic Real/kʙ       0.000000e+00 ( 0.000000e+00 +/- 0.000000e+00) [K]
    Coulombic Fourier/kʙ    0.000000e+00 ( 0.000000e+00 +/- 0.000000e+00) [K]
Molecule-molecule
    Van der Waals/kʙ       -2.750610e+05 (-2.742204e+05 +/- 5.288639e+03) [K]
    Van der Waals (Tail)/kʙ-1.172140e+04 (-1.172553e+04 +/- 2.049082e+02) [K]
    Coulombic Real/kʙ      -7.536706e+04 (-7.913343e+04 +/- 3.269952e+03) [K]
    Coulombic Fourier/kʙ   -1.889037e+04 (-1.937756e+04 +/- 4.811544e+02) [K]
    Molecule Intra/kʙ       0.000000e+00 ( 0.000000e+00 +/- 0.000000e+00) [K]

Current cycle: 4900 out of 5000
===============================================================================

Box:      25.53924   0.00000   0.00000  Average:  25.76100   0.00000   0.00000
           0.00000  25.53924   0.00000             0.00000  25.76100   0.00000
           0.00000   0.00000  25.53924             0.00000   0.00000  25.76100
Lengths:  25.53924  25.53924  25.53924  Average:  25.76100  25.76100  25.76100
Angles:   90.00000  90.00000  90.00000  Average:  90.00000  90.00000  90.00000
Rectangular boundary conditions

net charge:   0.00000000

component 0 (CO2) lambda:  0 occupancy:  1 (1.000000)
    net charge:   0.00000000 [e]

Amount of molecules per component :
-------------------------------------------------------------------------------
Component 0 (CO2)
    molecules:      2.500000e+02 molecules  (2.500000e+02 +/- 0.000000e+00)
    number density: 1.500776e-02 molec./A^3 (1.462926e-02 +/- 2.556073e-04)
    density:        1.096493e+03 kg/m^3     (1.068839e+03 +/- 1.867510e+01)

Average pressure tensor: 
-------------------------------------------------------------------------------
 6.9164e+01 -1.8710e+01  3.5459e+00 +/- 5.0185e+01 2.6130e+01 6.0240e+01 [bar]
-1.8710e+01  6.5592e+01 -7.8564e+00 +/- 2.6130e+01 3.9466e+01 2.9975e+01 [bar]
 3.5459e+00 -7.8564e+00  8.0386e+01 +/- 6.0240e+01 2.9975e+01 5.6481e+01 [bar]
Ideal-gas pressure:   5.049473e+02 +/ 8.822606e+00 [bar]
Excess pressure:     -4.332335e+02 +/ 1.453233e+01 [bar]
Pressure:             7.171381e+01 +/ 2.181514e+01 [bar]

Total potential energy/kʙ  -4.008207e+05 (-3.845972e+05 +/- 9.040960e+03) [K]
-------------------------------------------------------------------------------
ExternalField-molecule
    Van der Waals/kʙ        0.000000e+00 ( 0.000000e+00 +/- 0.000000e+00) [K]
Framework-molecule
    Van der Waals/kʙ        0.000000e+00 ( 0.000000e+00 +/- 0.000000e+00) [K]
    Van der Waals (Tail)/kʙ 0.000000e+00 ( 0.000000e+00 +/- 0.000000e+00) [K]
    Coulombic Real/kʙ       0.000000e+00 ( 0.000000e+00 +/- 0.000000e+00) [K]
    Coulombic Fourier/kʙ    0.000000e+00 ( 0.000000e+00 +/- 0.000000e+00) [K]
Molecule-molecule
    Van der Waals/kʙ       -2.781578e+05 (-2.743210e+05 +/- 5.305829e+03) [K]
    Van der Waals (Tail)/kʙ-1.203828e+04 (-1.173008e+04 +/- 2.067024e+02) [K]
    Coulombic Real/kʙ      -8.961853e+04 (-7.916063e+04 +/- 3.180925e+03) [K]
    Coulombic Fourier/kʙ   -2.100610e+04 (-1.938547e+04 +/- 4.694491e+02) [K]
    Molecule Intra/kʙ       0.000000e+00 ( 0.000000e+00 +/- 0.000000e+00) [K]


Energy statistics             |  Energy [K]   | Recomputed [K]|  Drift [K]    |
===============================================================================
Total potential energy/kʙ     | -3.941108e+05 | -3.941108e+05 |  6.125680e-11 |
    external field VDW/kʙ     |  0.000000e+00 |  0.000000e+00 |  0.000000e+00 |
    external field Real/kʙ    |  0.000000e+00 |  0.000000e+00 |  0.000000e+00 |
    framework-molecule VDW/kʙ |  0.000000e+00 |  0.000000e+00 |  0.000000e+00 |
    framework-molecule Real/kʙ|  0.000000e+00 |  0.000000e+00 |  0.000000e+00 |
    molecule-molecule VDW/kʙ  | -2.827083e+05 | -2.827083e+05 |  3.500388e-11 |
    molecule-molecule Real/kʙ | -8.125914e+04 | -8.125914e+04 |  1.750194e-11 |
    Van der Waals (Tail)/kʙ   | -1.194028e+04 | -1.194028e+04 |  0.000000e+00 |
    Ewald Fourier/kʙ          |  1.812408e+04 |  1.812408e+04 |  8.750971e-12 |
    Ewald self/kʙ             | -5.557308e+06 | -5.557308e+06 |  0.000000e+00 |
    Ewald exclusion/kʙ        |  5.520981e+06 |  5.520981e+06 |  0.000000e+00 |
    intra VDW/kʙ              |  0.000000e+00 |  0.000000e+00 |  0.000000e+00 |
    intra Coulombic/kʙ        |  0.000000e+00 |  0.000000e+00 |  0.000000e+00 |
    polarization/kʙ           |  0.000000e+00 |  0.000000e+00 |  0.000000e+00 |
    dU/dlambda VDW/kʙ         |  0.000000e+00 |  0.000000e+00 |  0.000000e+00 |
    dU/dlambda Real/kʙ        |  0.000000e+00 |  0.000000e+00 |  0.000000e+00 |
    dU/dlambda Ewald/kʙ       |  0.000000e+00 |  0.000000e+00 |  0.000000e+00 |
-------------------------------------------------------------------------------


Monte-Carlo moves statistics
===============================================================================

    Volume change        all:                8297
    Volume change        total:              8297
    Volume change        constructed:        8297
    Volume change        accepted:           3281
    Volume change        fraction:       0.395444
    Volume change        max-change:     0.033333

Component 0 [CO2]
    Reinsertion (CBMC)   all:              413888
    Reinsertion (CBMC)   total:            413888
    Reinsertion (CBMC)   constructed:      364855
    Reinsertion (CBMC)   accepted:           5082
    Reinsertion (CBMC)   fraction:       0.012279
    Reinsertion (CBMC)   max-change:     0.000000

    Translation          all:              413675
    Translation          total:            137973     138425     137277
    Translation          constructed:      137965     138425     137277
    Translation          accepted:          53296      69737      69694
    Translation          fraction:       0.386278   0.503789   0.507689
    Translation          max-change:     0.937500   0.653333   0.645161

    Rotation             all:              414140
    Rotation             total:            138321     138013     137806
    Rotation             constructed:      138321     138013     137806
    Rotation             accepted:          78364      81774      66999
    Rotation             fraction:       0.566537   0.592509   0.486183
    Rotation             max-change:     0.555556   0.510856   0.714286



Production run counting of the MC moves summed over systems and components
===============================================================================

Volume change                          8297 (0.6638 [%])
Reinsertion (CBMC)                   413888 (33.1110 [%])
Translation                          413675 (33.0940 [%])
Rotation                             414140 (33.1312 [%])

Production count MC-steps:          1250000 [-]
               All summed:          1250000 [-]
               difference:                0 [-]


Production run CPU timings of the MC moves
===============================================================================

Component 0 CO2

Rotation                             62.890214 [s]
    Ewald                            31.050875 [s]
    ExternalField-Molecule            0.015569 [s]
    Framework-Molecule                0.014668 [s]
    Molecule-Molecule                28.979393 [s]
    Overhead                          2.829709 [s]

Reinsertion (CBMC)                  222.383172 [s]
    Ewald                            27.517235 [s]
    NonEwald                        194.409789 [s]
    Overhead                          0.456148 [s]

Translation                          62.684611 [s]
    Ewald                            31.023239 [s]
    ExternalField-Molecule            0.013658 [s]
    Framework-Molecule                0.023060 [s]
    Molecule-Molecule                29.178200 [s]
    Overhead                          2.446454 [s]



Volume change                         72.039498 [s]
    Ewald                             29.902281 [s]
    NonEwald                          39.385191 [s]
    Tail                               2.430879 [s]

Property sampling                     0.311647 [s]
Energy/pressure sampling:             9.020257 [s]


Production run CPU timings of the MC moves summed over systems and components
===============================================================================


Translation                          62.684611 [s]
    Ewald                            31.023239 [s]
    ExternalField-Molecule            0.013658 [s]
    Framework-Molecule                0.023060 [s]
    Molecule-Molecule                29.178200 [s]
    Overhead                          2.446454 [s]

Rotation                             62.890214 [s]
    Ewald                            31.050875 [s]
    ExternalField-Molecule            0.015569 [s]
    Framework-Molecule                0.014668 [s]
    Molecule-Molecule                28.979393 [s]
    Overhead                          2.829709 [s]

Volume change                        72.039498 [s]
    Ewald                            29.902281 [s]
    NonEwald                         39.385191 [s]
    Tail                              2.430879 [s]
    Overhead                          0.321147 [s]

Reinsertion (CBMC)                  222.383172 [s]
    Ewald                            27.517235 [s]
    NonEwald                        194.409789 [s]
    Overhead                          0.456148 [s]

Property sampling:                    0.311647 [s]
Energy/pressure sampling:             9.020257 [s]

Production simulation time:         430.342727 [s]
                All summed:         429.329399 [s]
                  Overhead:           1.013328 [s]


Initalization simulation time:       84.402073 [s]
Equilibration simulation time:        0.000000 [s]
Production simulation time:         430.342727 [s]
Total simulation time:              514.744800 [s]


Energy averages and statistics:
===============================================================================

Framework-molecule energy:
-------------------------------------------------------------------------------



Framework-molecule energy contributions per energy type:
-------------------------------------------------------------------------------



Inter-molecular energy:
-------------------------------------------------------------------------------

    Inter-molecular energy/kʙ 0-0 [CO2-CO2]:
    ---------------------------------------------------------------------------
        Block[  0] -3.759183e+05
        Block[  1] -3.795863e+05
        Block[  2] -3.841549e+05
        Block[  3] -3.913151e+05
        Block[  4] -3.928785e+05
        -----------------------------------------------------------------------
        Average  -3.847706e+05 +/-  9.084510e+03 [K]



Inter-molecular energy contributions per energy type:
-------------------------------------------------------------------------------

    Van der Waals energy/kʙ 0-0 [CO2-CO2]:
    ---------------------------------------------------------------------------
        Block[  0] -2.692196e+05
        Block[  1] -2.709005e+05
        Block[  2] -2.748575e+05
        Block[  3] -2.784119e+05
        Block[  4] -2.789407e+05
        -----------------------------------------------------------------------
        Average  -2.744660e+05 +/-  5.410841e+03 [K]

    VDW Tail-Correction energy/kʙ 0-0 [CO2-CO2]:
    ---------------------------------------------------------------------------
        Block[  0] -1.153799e+04
        Block[  1] -1.159556e+04
        Block[  2] -1.173752e+04
        Block[  3] -1.189762e+04
        Block[  4] -1.191092e+04
        -----------------------------------------------------------------------
        Average  -1.173592e+04 +/-  2.110967e+02 [K]

    Coulomb Real energy/kʙ 0-0 [CO2-CO2]:
    ---------------------------------------------------------------------------
        Block[  0] -7.611298e+04
        Block[  1] -7.794484e+04
        Block[  2] -7.833619e+04
        Block[  3] -8.139960e+04
        Block[  4] -8.211640e+04
        -----------------------------------------------------------------------
        Average  -7.918200e+04 +/-  3.115640e+03 [K]

    Coulomb Fourier energy/kʙ 0-0 [CO2-CO2]:
    ---------------------------------------------------------------------------
        Block[  0] -1.904775e+04
        Block[  1] -1.914539e+04
        Block[  2] -1.922362e+04
        Block[  3] -1.960595e+04
        Block[  4] -1.991051e+04
        -----------------------------------------------------------------------
        Average  -1.938664e+04 +/-  4.485446e+02 [K]


Total energy/kʙ
-------------------------------------------------------------------------------
    Block[  0] -3.759183e+05
    Block[  1] -3.795863e+05
    Block[  2] -3.841549e+05
    Block[  3] -3.913151e+05
    Block[  4] -3.928785e+05
    ---------------------------------------------------------------------------
    Average  -3.847706e+05 +/-  9.084510e+03 [K]

Pressure averages and statistics:
===============================================================================

Average pressure tensor: 
-------------------------------------------------------------------------------
 7.5518e+01 -1.6289e+01  4.2844e+00 +/- 5.5651e+01 2.6701e+01 5.7078e+01 [bar]
-1.6289e+01  6.3038e+01 -6.8504e+00 +/- 2.6701e+01 4.2082e+01 3.0009e+01 [bar]
 4.2844e+00 -6.8504e+00  8.3101e+01 +/- 5.7078e+01 3.0009e+01 5.8710e+01 [bar]

    Block[  0]  4.966250e+07
    Block[  1]  4.993838e+07
    Block[  2]  5.052948e+07
    Block[  3]  5.119371e+07
    Block[  4]  5.126935e+07
    ---------------------------------------------------------------------------
    Ideal gas pressure   5.051868e+07 +/-  5.402986e-02 [Pa]
                         5.051868e+02 +/-  8.971876e+00 [bar]


    Block[  0] -4.505763e+07
    Block[  1] -4.352021e+07
    Block[  2] -4.262859e+07
    Block[  3] -4.193630e+07
    Block[  4] -4.250786e+07
    ---------------------------------------------------------------------------
    Excess pressure  -4.313012e+07 +/-  1.511760e+06 [Pa]
                     -4.313012e+02 +/-  1.511760e+01 [bar]


    Block[  0]  4.604871e+06
    Block[  1]  6.418168e+06
    Block[  2]  7.900894e+06
    Block[  3]  9.257409e+06
    Block[  4]  8.761490e+06
    ---------------------------------------------------------------------------
    Pressure average   7.388566e+06 +/-  2.349831e+06 [Pa]
                       7.388566e+01 +/-  2.349831e+01 [bar]


Enthalpy of adsorption
===============================================================================

No fluctuating components present.


Densities
===============================================================================

Component 0 (CO2)
    Block[  0] 250
    Block[  1] 250
    Block[  2] 250
    Block[  3] 250
    Block[  4] 250
    -----------------------------------------------------------------------
    Density average   2.500000e+02 +/-  0.000000e+00 [molecules]
    Density average   1.463620e-02 +/-  2.599319e-04 [molec/A^3]
    Density average   1.069346e+03 +/-  1.899107e+01 [kg.m⁻³]

